# Thermal properties / unit cell (natom)

unit:
  temperature:   K
  free_energy:   kJ/mol
  entropy:       J/K/mol
  heat_capacity: J/K/mol

natom: 5    
cutoff_frequency:    0.000
num_modes: 7680
num_integrated_modes: 6376

zero_point_energy:      19.3823906
high_T_entropy:        385.2556559

thermal_properties:
- temperature:         0.0000000
  free_energy:        19.3823906
  entropy:             0.0000000
  heat_capacity:       0.0000000
  energy:             19.3823906

- temperature:        10.0000000
  free_energy:        19.3812812
  entropy:             0.3911089
  heat_capacity:       0.8599337
  energy:             19.3851923

- temperature:        20.0000000
  free_energy:        19.3710267
  entropy:             1.9131979
  heat_capacity:       4.6971254
  energy:             19.4092907

- temperature:        30.0000000
  free_energy:        19.3373007
  entropy:             5.0943713
  heat_capacity:      11.7418918
  energy:             19.4901319

- temperature:        40.0000000
  free_energy:        19.2650068
  entropy:             9.5164078
  heat_capacity:      19.3204848
  energy:             19.6456631

- temperature:        50.0000000
  free_energy:        19.1448054
  entropy:            14.5967705
  heat_capacity:      26.3544874
  energy:             19.8746439

- temperature:        60.0000000
  free_energy:        18.9721193
  entropy:            19.9680102
  heat_capacity:      32.6292902
  energy:             20.1701999

- temperature:        70.0000000
  free_energy:        18.7451755
  entropy:            25.4231244
  heat_capacity:      38.1752100
  energy:             20.5247942

- temperature:        80.0000000
  free_energy:        18.4637639
  entropy:            30.8478062
  heat_capacity:      43.0865305
  energy:             20.9315884

- temperature:        90.0000000
  free_energy:        18.1285301
  entropy:            36.1802201
  heat_capacity:      47.4649163
  energy:             21.3847499

- temperature:       100.0000000
  free_energy:        17.7405756
  entropy:            41.3883399
  heat_capacity:      51.3995587
  energy:             21.8794096

- temperature:       110.0000000
  free_energy:        17.3012291
  entropy:            46.4570315
  heat_capacity:      54.9620894
  energy:             22.4115026

- temperature:       120.0000000
  free_energy:        16.8119191
  entropy:            51.3806475
  heat_capacity:      58.2078176
  energy:             22.9775968

- temperature:       130.0000000
  free_energy:        16.2741014
  entropy:            56.1587973
  heat_capacity:      61.1790494
  energy:             23.5747450

- temperature:       140.0000000
  free_energy:        15.6892200
  entropy:            60.7939473
  heat_capacity:      63.9085013
  energy:             24.2003726

- temperature:       150.0000000
  free_energy:        15.0586859
  entropy:            65.2900671
  heat_capacity:      66.4220867
  energy:             24.8521960

- temperature:       160.0000000
  free_energy:        14.3838664
  entropy:            69.6518704
  heat_capacity:      68.7409587
  energy:             25.5281656

- temperature:       170.0000000
  free_energy:        13.6660795
  entropy:            73.8843897
  heat_capacity:      70.8829184
  energy:             26.2264257

- temperature:       180.0000000
  free_energy:        12.9065925
  entropy:            77.9927406
  heat_capacity:      72.8633538
  energy:             26.9452858

- temperature:       190.0000000
  free_energy:        12.1066217
  entropy:            81.9819904
  heat_capacity:      74.6958529
  energy:             27.6831998

- temperature:       200.0000000
  free_energy:        11.2673332
  entropy:            85.8570866
  heat_capacity:      76.3926016
  energy:             28.4387505

- temperature:       210.0000000
  free_energy:        10.3898445
  entropy:            89.6228183
  heat_capacity:      77.9646441
  energy:             29.2106363

- temperature:       220.0000000
  free_energy:         9.4752260
  entropy:            93.2837973
  heat_capacity:      79.4220564
  energy:             29.9976613

- temperature:       230.0000000
  free_energy:         8.5245029
  entropy:            96.8444489
  heat_capacity:      80.7740675
  energy:             30.7987262

- temperature:       240.0000000
  free_energy:         7.5386573
  entropy:           100.3090101
  heat_capacity:      82.0291467
  energy:             31.6128197

- temperature:       250.0000000
  free_energy:         6.5186295
  entropy:           103.6815300
  heat_capacity:      83.1950727
  energy:             32.4390120

- temperature:       260.0000000
  free_energy:         5.4653206
  entropy:           106.9658741
  heat_capacity:      84.2789900
  energy:             33.2764478

- temperature:       270.0000000
  free_energy:         4.3795936
  entropy:           110.1657286
  heat_capacity:      85.2874582
  energy:             34.1243404

- temperature:       280.0000000
  free_energy:         3.2622759
  entropy:           113.2846062
  heat_capacity:      86.2264965
  energy:             34.9819656

- temperature:       290.0000000
  free_energy:         2.1141603
  entropy:           116.3258519
  heat_capacity:      87.1016248
  energy:             35.8486573

- temperature:       300.0000000
  free_energy:         0.9360070
  entropy:           119.2926500
  heat_capacity:      87.9179025
  energy:             36.7238020

- temperature:       310.0000000
  free_energy:        -0.2714547
  entropy:           122.1880302
  heat_capacity:      88.6799638
  energy:             37.6068347

- temperature:       320.0000000
  free_energy:        -1.5075252
  entropy:           125.0148747
  heat_capacity:      89.3920528
  energy:             38.4972347

- temperature:       330.0000000
  free_energy:        -2.7715329
  entropy:           127.7759243
  heat_capacity:      90.0580544
  energy:             39.3945221

- temperature:       340.0000000
  free_energy:        -4.0628331
  entropy:           130.4737857
  heat_capacity:      90.6815248
  energy:             40.2982541

- temperature:       350.0000000
  free_energy:        -5.3808063
  entropy:           133.1109371
  heat_capacity:      91.2657189
  energy:             41.2080217

- temperature:       360.0000000
  free_energy:        -6.7248573
  entropy:           135.6897355
  heat_capacity:      91.8136165
  energy:             42.1234475

- temperature:       370.0000000
  free_energy:        -8.0944139
  entropy:           138.2124220
  heat_capacity:      92.3279455
  energy:             43.0441822

- temperature:       380.0000000
  free_energy:        -9.4889258
  entropy:           140.6811281
  heat_capacity:      92.8112045
  energy:             43.9699029

- temperature:       390.0000000
  free_energy:       -10.9078633
  entropy:           143.0978813
  heat_capacity:      93.2656825
  energy:             44.9003104

- temperature:       400.0000000
  free_energy:       -12.3507167
  entropy:           145.4646107
  heat_capacity:      93.6934779
  energy:             45.8351276

- temperature:       410.0000000
  free_energy:       -13.8169949
  entropy:           147.7831521
  heat_capacity:      94.0965150
  energy:             46.7740974

- temperature:       420.0000000
  free_energy:       -15.3062250
  entropy:           150.0552529
  heat_capacity:      94.4765595
  energy:             47.7169813

- temperature:       430.0000000
  free_energy:       -16.8179507
  entropy:           152.2825771
  heat_capacity:      94.8352328
  energy:             48.6635574

- temperature:       440.0000000
  free_energy:       -18.3517325
  entropy:           154.4667095
  heat_capacity:      95.1740247
  energy:             49.6136197

- temperature:       450.0000000
  free_energy:       -19.9071460
  entropy:           156.6091604
  heat_capacity:      95.4943048
  energy:             50.5669762

- temperature:       460.0000000
  free_energy:       -21.4837816
  entropy:           158.7113693
  heat_capacity:      95.7973336
  energy:             51.5234483

- temperature:       470.0000000
  free_energy:       -23.0812438
  entropy:           160.7747087
  heat_capacity:      96.0842716
  energy:             52.4828692

- temperature:       480.0000000
  free_energy:       -24.6991506
  entropy:           162.8004880
  heat_capacity:      96.3561885
  energy:             53.4450836

- temperature:       490.0000000
  free_energy:       -26.3371326
  entropy:           164.7899567
  heat_capacity:      96.6140707
  energy:             54.4099462

- temperature:       500.0000000
  free_energy:       -27.9948327
  entropy:           166.7443080
  heat_capacity:      96.8588286
  energy:             55.3773213

- temperature:       510.0000000
  free_energy:       -29.6719055
  entropy:           168.6646811
  heat_capacity:      97.0913035
  energy:             56.3470819

- temperature:       520.0000000
  free_energy:       -31.3680167
  entropy:           170.5521648
  heat_capacity:      97.3122730
  energy:             57.3191090

- temperature:       530.0000000
  free_energy:       -33.0828426
  entropy:           172.4078000
  heat_capacity:      97.5224566
  energy:             58.2932914

- temperature:       540.0000000
  free_energy:       -34.8160698
  entropy:           174.2325820
  heat_capacity:      97.7225209
  energy:             59.2695244

- temperature:       550.0000000
  free_energy:       -36.5673946
  entropy:           176.0274631
  heat_capacity:      97.9130833
  energy:             60.2477101

- temperature:       560.0000000
  free_energy:       -38.3365225
  entropy:           177.7933550
  heat_capacity:      98.0947169
  energy:             61.2277563

- temperature:       570.0000000
  free_energy:       -40.1231680
  entropy:           179.5311306
  heat_capacity:      98.2679535
  energy:             62.2095765

- temperature:       580.0000000
  free_energy:       -41.9270541
  entropy:           181.2416262
  heat_capacity:      98.4332872
  energy:             63.1930891

- temperature:       590.0000000
  free_energy:       -43.7479122
  entropy:           182.9256435
  heat_capacity:      98.5911776
  energy:             64.1782174

- temperature:       600.0000000
  free_energy:       -45.5854813
  entropy:           184.5839509
  heat_capacity:      98.7420524
  energy:             65.1648892

- temperature:       610.0000000
  free_energy:       -47.4395080
  entropy:           186.2172859
  heat_capacity:      98.8863097
  energy:             66.1530364

- temperature:       620.0000000
  free_energy:       -49.3097462
  entropy:           187.8263561
  heat_capacity:      99.0243207
  energy:             67.1425946

- temperature:       630.0000000
  free_energy:       -51.1959565
  entropy:           189.4118408
  heat_capacity:      99.1564319
  energy:             68.1335032

- temperature:       640.0000000
  free_energy:       -53.0979065
  entropy:           190.9743925
  heat_capacity:      99.2829664
  energy:             69.1257047

- temperature:       650.0000000
  free_energy:       -55.0153700
  entropy:           192.5146384
  heat_capacity:      99.4042261
  energy:             70.1191449

- temperature:       660.0000000
  free_energy:       -56.9481270
  entropy:           194.0331811
  heat_capacity:      99.5204935
  energy:             71.1137726

- temperature:       670.0000000
  free_energy:       -58.8959632
  entropy:           195.5306004
  heat_capacity:      99.6320327
  energy:             72.1095390

- temperature:       680.0000000
  free_energy:       -60.8586704
  entropy:           197.0074540
  heat_capacity:      99.7390911
  energy:             73.1063983

- temperature:       690.0000000
  free_energy:       -62.8360455
  entropy:           198.4642786
  heat_capacity:      99.8419002
  energy:             74.1043067

- temperature:       700.0000000
  free_energy:       -64.8278909
  entropy:           199.9015911
  heat_capacity:      99.9406775
  energy:             75.1032228

- temperature:       710.0000000
  free_energy:       -66.8340140
  entropy:           201.3198894
  heat_capacity:     100.0356268
  energy:             76.1031075

- temperature:       720.0000000
  free_energy:       -68.8542270
  entropy:           202.7196531
  heat_capacity:     100.1269394
  energy:             77.1039233

- temperature:       730.0000000
  free_energy:       -70.8883468
  entropy:           204.1013446
  heat_capacity:     100.2147953
  energy:             78.1056347

- temperature:       740.0000000
  free_energy:       -72.9361951
  entropy:           205.4654099
  heat_capacity:     100.2993635
  energy:             79.1082082

- temperature:       750.0000000
  free_energy:       -74.9975977
  entropy:           206.8122790
  heat_capacity:     100.3808031
  energy:             80.1116116

- temperature:       760.0000000
  free_energy:       -77.0723847
  entropy:           208.1423672
  heat_capacity:     100.4592637
  energy:             81.1158143

- temperature:       770.0000000
  free_energy:       -79.1603904
  entropy:           209.4560751
  heat_capacity:     100.5348865
  energy:             82.1207874

- temperature:       780.0000000
  free_energy:       -81.2614529
  entropy:           210.7537897
  heat_capacity:     100.6078044
  energy:             83.1265031

- temperature:       790.0000000
  free_energy:       -83.3754142
  entropy:           212.0358849
  heat_capacity:     100.6781427
  energy:             84.1329349

- temperature:       800.0000000
  free_energy:       -85.5021198
  entropy:           213.3027218
  heat_capacity:     100.7460199
  energy:             85.1400577

- temperature:       810.0000000
  free_energy:       -87.6414189
  entropy:           214.5546498
  heat_capacity:     100.8115475
  energy:             86.1478475

- temperature:       820.0000000
  free_energy:       -89.7931642
  entropy:           215.7920066
  heat_capacity:     100.8748313
  energy:             87.1562812

- temperature:       830.0000000
  free_energy:       -91.9572116
  entropy:           217.0151187
  heat_capacity:     100.9359709
  energy:             88.1653369

- temperature:       840.0000000
  free_energy:       -94.1334201
  entropy:           218.2243023
  heat_capacity:     100.9950607
  energy:             89.1749938

- temperature:       850.0000000
  free_energy:       -96.3216522
  entropy:           219.4198633
  heat_capacity:     101.0521901
  energy:             90.1852316

- temperature:       860.0000000
  free_energy:       -98.5217730
  entropy:           220.6020980
  heat_capacity:     101.1074437
  energy:             91.1960313

- temperature:       870.0000000
  free_energy:      -100.7336507
  entropy:           221.7712933
  heat_capacity:     101.1609016
  energy:             92.2073745

- temperature:       880.0000000
  free_energy:      -102.9571563
  entropy:           222.9277272
  heat_capacity:     101.2126397
  energy:             93.2192436

- temperature:       890.0000000
  free_energy:      -105.1921636
  entropy:           224.0716690
  heat_capacity:     101.2627301
  energy:             94.2316218

- temperature:       900.0000000
  free_energy:      -107.4385489
  entropy:           225.2033799
  heat_capacity:     101.3112411
  energy:             95.2444930

- temperature:       910.0000000
  free_energy:      -109.6961913
  entropy:           226.3231130
  heat_capacity:     101.3582377
  energy:             96.2578416

- temperature:       920.0000000
  free_energy:      -111.9649721
  entropy:           227.4311141
  heat_capacity:     101.4037814
  energy:             97.2716529

- temperature:       930.0000000
  free_energy:      -114.2447752
  entropy:           228.5276213
  heat_capacity:     101.4479308
  energy:             98.2859126

- temperature:       940.0000000
  free_energy:      -116.5354870
  entropy:           229.6128659
  heat_capacity:     101.4907417
  energy:             99.3006070

- temperature:       950.0000000
  free_energy:      -118.8369958
  entropy:           230.6870725
  heat_capacity:     101.5322669
  energy:            100.3157231

- temperature:       960.0000000
  free_energy:      -121.1491924
  entropy:           231.7504590
  heat_capacity:     101.5725570
  energy:            101.3312482

- temperature:       970.0000000
  free_energy:      -123.4719696
  entropy:           232.8032370
  heat_capacity:     101.6116597
  energy:            102.3471703

- temperature:       980.0000000
  free_energy:      -125.8052224
  entropy:           233.8456123
  heat_capacity:     101.6496210
  energy:            103.3634776

- temperature:       990.0000000
  free_energy:      -128.1488478
  entropy:           234.8777847
  heat_capacity:     101.6864842
  energy:            104.3801591

- temperature:      1000.0000000
  free_energy:      -130.5027448
  entropy:           235.8999485
  heat_capacity:     101.7222909
  energy:            105.3972038
