# Thermal properties / unit cell (natom)

unit:
  temperature:   K
  free_energy:   kJ/mol
  entropy:       J/K/mol
  heat_capacity: J/K/mol

natom: 15   
cutoff_frequency:    0.000
num_modes: 23040
num_integrated_modes: 23028

zero_point_energy:      82.6917419
high_T_entropy:       1292.1089405

thermal_properties:
- temperature:         0.0000000
  free_energy:        82.6917419
  entropy:             0.0000000
  heat_capacity:       0.0000000
  energy:             82.6917419

- temperature:        10.0000000
  free_energy:        82.6907359
  entropy:             0.2966011
  heat_capacity:       0.6206537
  energy:             82.6937019

- temperature:        20.0000000
  free_energy:        82.6817359
  entropy:             1.9189426
  heat_capacity:       6.1635403
  energy:             82.7201147

- temperature:        30.0000000
  free_energy:        82.6410560
  entropy:             6.8107592
  heat_capacity:      19.8297888
  energy:             82.8453788

- temperature:        40.0000000
  free_energy:        82.5351869
  entropy:            14.7876715
  heat_capacity:      36.6524875
  energy:             83.1266937

- temperature:        50.0000000
  free_energy:        82.3384224
  entropy:            24.8425499
  heat_capacity:      54.1654562
  energy:             83.5805499

- temperature:        60.0000000
  free_energy:        82.0337653
  entropy:            36.2774974
  heat_capacity:      71.8082807
  energy:             84.2104152

- temperature:        70.0000000
  free_energy:        81.6097069
  entropy:            48.6665315
  heat_capacity:      89.3452936
  energy:             85.0163641

- temperature:        80.0000000
  free_energy:        81.0582107
  entropy:            61.7251270
  heat_capacity:     106.5527451
  energy:             85.9962209

- temperature:        90.0000000
  free_energy:        80.3736757
  entropy:            75.2438079
  heat_capacity:     123.2215249
  energy:             87.1456184

- temperature:       100.0000000
  free_energy:        79.5523483
  entropy:            89.0594609
  heat_capacity:     139.1850130
  energy:             88.4582944

- temperature:       110.0000000
  free_energy:        78.5919321
  entropy:           103.0422747
  heat_capacity:     154.3292756
  energy:             89.9265824

- temperature:       120.0000000
  free_energy:        77.4912933
  entropy:           117.0886302
  heat_capacity:     168.5895980
  energy:             91.5419290

- temperature:       130.0000000
  free_energy:        76.2502238
  entropy:           131.1162926
  heat_capacity:     181.9411532
  energy:             93.2953418

- temperature:       140.0000000
  free_energy:        74.8692468
  entropy:           145.0606395
  heat_capacity:     194.3886730
  energy:             95.1777363

- temperature:       150.0000000
  free_energy:        73.3494572
  entropy:           158.8715139
  heat_capacity:     205.9573292
  energy:             97.1801843

- temperature:       160.0000000
  free_energy:        71.6923903
  entropy:           172.5105632
  heat_capacity:     216.6854977
  energy:             99.2940805

- temperature:       170.0000000
  free_energy:        69.8999155
  entropy:           185.9490038
  heat_capacity:     226.6193604
  energy:            101.5112461

- temperature:       180.0000000
  free_energy:        67.9741499
  entropy:           199.1657613
  heat_capacity:     235.8090445
  energy:            103.8239869

- temperature:       190.0000000
  free_energy:        65.9173894
  entropy:           212.1459390
  heat_capacity:     244.3059491
  energy:            106.2251178

- temperature:       200.0000000
  free_energy:        63.7320534
  entropy:           224.8795653
  heat_capacity:     252.1609518
  energy:            108.7079664

- temperature:       210.0000000
  free_energy:        61.4206405
  entropy:           237.3605760
  heat_capacity:     259.4232494
  energy:            111.2663615

- temperature:       220.0000000
  free_energy:        58.9856941
  entropy:           249.5859907
  heat_capacity:     266.1396461
  energy:            113.8946121

- temperature:       230.0000000
  free_energy:        56.4297748
  entropy:           261.5552478
  heat_capacity:     272.3541536
  energy:            116.5874818

- temperature:       240.0000000
  free_energy:        53.7554388
  entropy:           273.2696688
  heat_capacity:     278.1078055
  energy:            119.3401593

- temperature:       250.0000000
  free_energy:        50.9652217
  entropy:           284.7320280
  heat_capacity:     283.4386168
  energy:            122.1482287

- temperature:       260.0000000
  free_energy:        48.0616256
  entropy:           295.9462067
  heat_capacity:     288.3816380
  energy:            125.0076393

- temperature:       270.0000000
  free_energy:        45.0471092
  entropy:           306.9169158
  heat_capacity:     292.9690707
  energy:            127.9146765

- temperature:       280.0000000
  free_energy:        41.9240811
  entropy:           317.6494747
  heat_capacity:     297.2304199
  energy:            130.8659341

- temperature:       290.0000000
  free_energy:        38.6948944
  entropy:           328.1496335
  heat_capacity:     301.1926656
  energy:            133.8582881

- temperature:       300.0000000
  free_energy:        35.3618430
  entropy:           338.4234323
  heat_capacity:     304.8804441
  energy:            136.8888727

- temperature:       310.0000000
  free_energy:        31.9271596
  entropy:           348.4770893
  heat_capacity:     308.3162282
  energy:            139.9550573

- temperature:       320.0000000
  free_energy:        28.3930140
  entropy:           358.3169118
  heat_capacity:     311.5205047
  energy:            143.0544258

- temperature:       330.0000000
  free_energy:        24.7615130
  entropy:           367.9492274
  heat_capacity:     314.5119429
  energy:            146.1847581

- temperature:       340.0000000
  free_energy:        21.0347002
  entropy:           377.3803291
  heat_capacity:     317.3075536
  energy:            149.3440121

- temperature:       350.0000000
  free_energy:        17.2145564
  entropy:           386.6164336
  heat_capacity:     319.9228381
  energy:            152.5303082

- temperature:       360.0000000
  free_energy:        13.3030011
  entropy:           395.6636496
  heat_capacity:     322.3719250
  energy:            155.7419150

- temperature:       370.0000000
  free_energy:         9.3018931
  entropy:           404.5279531
  heat_capacity:     324.6676968
  energy:            158.9772358

- temperature:       380.0000000
  free_energy:         5.2130323
  entropy:           413.2151706
  heat_capacity:     326.8219054
  energy:            162.2347971

- temperature:       390.0000000
  free_energy:         1.0381611
  entropy:           421.7309661
  heat_capacity:     328.8452776
  energy:            165.5132379

- temperature:       400.0000000
  free_energy:        -3.2210339
  entropy:           430.0808331
  heat_capacity:     330.7476105
  energy:            168.8112993

- temperature:       410.0000000
  free_energy:        -7.5629202
  entropy:           438.2700897
  heat_capacity:     332.5378590
  energy:            172.1278166

- temperature:       420.0000000
  free_energy:       -11.9859175
  entropy:           446.3038756
  heat_capacity:     334.2242142
  energy:            175.4617103

- temperature:       430.0000000
  free_energy:       -16.4884960
  entropy:           454.1871526
  heat_capacity:     335.8141745
  energy:            178.8119796

- temperature:       440.0000000
  free_energy:       -21.0691748
  entropy:           461.9247051
  heat_capacity:     337.3146100
  energy:            182.1776954

- temperature:       450.0000000
  free_energy:       -25.7265198
  entropy:           469.5211427
  heat_capacity:     338.7318209
  energy:            185.5579944

- temperature:       460.0000000
  free_energy:       -30.4591421
  entropy:           476.9809040
  heat_capacity:     340.0715895
  energy:            188.9520737

- temperature:       470.0000000
  free_energy:       -35.2656965
  entropy:           484.3082604
  heat_capacity:     341.3392278
  energy:            192.3591858

- temperature:       480.0000000
  free_energy:       -40.1448797
  entropy:           491.5073205
  heat_capacity:     342.5396201
  energy:            195.7786342

- temperature:       490.0000000
  free_energy:       -45.0954285
  entropy:           498.5820359
  heat_capacity:     343.6772616
  energy:            199.2097691

- temperature:       500.0000000
  free_energy:       -50.1161186
  entropy:           505.5362054
  heat_capacity:     344.7562933
  energy:            202.6519841

- temperature:       510.0000000
  free_energy:       -55.2057629
  entropy:           512.3734810
  heat_capacity:     345.7805335
  energy:            206.1047124

- temperature:       520.0000000
  free_energy:       -60.3632103
  entropy:           519.0973734
  heat_capacity:     346.7535059
  energy:            209.5674239

- temperature:       530.0000000
  free_energy:       -65.5873437
  entropy:           525.7112570
  heat_capacity:     347.6784656
  energy:            213.0396225

- temperature:       540.0000000
  free_energy:       -70.8770795
  entropy:           532.2183755
  heat_capacity:     348.5584223
  energy:            216.5208432

- temperature:       550.0000000
  free_energy:       -76.2313658
  entropy:           538.6218472
  heat_capacity:     349.3961611
  energy:            220.0106502

- temperature:       560.0000000
  free_energy:       -81.6491810
  entropy:           544.9246703
  heat_capacity:     350.1942620
  energy:            223.5086343

- temperature:       570.0000000
  free_energy:       -87.1295333
  entropy:           551.1297274
  heat_capacity:     350.9551167
  energy:            227.0144113

- temperature:       580.0000000
  free_energy:       -92.6714589
  entropy:           557.2397911
  heat_capacity:     351.6809445
  energy:            230.5276199

- temperature:       590.0000000
  free_energy:       -98.2740214
  entropy:           563.2575283
  heat_capacity:     352.3738068
  energy:            234.0479203

- temperature:       600.0000000
  free_energy:      -103.9363103
  entropy:           569.1855048
  heat_capacity:     353.0356194
  energy:            237.5749926

- temperature:       610.0000000
  free_energy:      -109.6574405
  entropy:           575.0261897
  heat_capacity:     353.6681647
  energy:            241.1085352

- temperature:       620.0000000
  free_energy:      -115.4365511
  entropy:           580.7819596
  heat_capacity:     354.2731023
  energy:            244.6482639

- temperature:       630.0000000
  free_energy:      -121.2728043
  entropy:           586.4551026
  heat_capacity:     354.8519787
  energy:            248.1939104

- temperature:       640.0000000
  free_energy:      -127.1653850
  entropy:           592.0478225
  heat_capacity:     355.4062362
  energy:            251.7452214

- temperature:       650.0000000
  free_energy:      -133.1134997
  entropy:           597.5622420
  heat_capacity:     355.9372211
  energy:            255.3019575

- temperature:       660.0000000
  free_energy:      -139.1163757
  entropy:           603.0004063
  heat_capacity:     356.4461909
  energy:            258.8638924

- temperature:       670.0000000
  free_energy:      -145.1732603
  entropy:           608.3642868
  heat_capacity:     356.9343210
  energy:            262.4308119

- temperature:       680.0000000
  free_energy:      -151.2834202
  entropy:           613.6557842
  heat_capacity:     357.4027113
  energy:            266.0025131

- temperature:       690.0000000
  free_energy:      -157.4461408
  entropy:           618.8767312
  heat_capacity:     357.8523914
  energy:            269.5788038

- temperature:       700.0000000
  free_energy:      -163.6607255
  entropy:           624.0288961
  heat_capacity:     358.2843260
  energy:            273.1595018

- temperature:       710.0000000
  free_energy:      -169.9264951
  entropy:           629.1139849
  heat_capacity:     358.6994197
  energy:            276.7444342

- temperature:       720.0000000
  free_energy:      -176.2427871
  entropy:           634.1336444
  heat_capacity:     359.0985211
  energy:            280.3334368

- temperature:       730.0000000
  free_energy:      -182.6089552
  entropy:           639.0894646
  heat_capacity:     359.4824272
  energy:            283.9263539

- temperature:       740.0000000
  free_energy:      -189.0243688
  entropy:           643.9829811
  heat_capacity:     359.8518866
  energy:            287.5230372

- temperature:       750.0000000
  free_energy:      -195.4884121
  entropy:           648.8156773
  heat_capacity:     360.2076034
  energy:            291.1233459

- temperature:       760.0000000
  free_energy:      -202.0004843
  entropy:           653.5889869
  heat_capacity:     360.5502398
  energy:            294.7271457

- temperature:       770.0000000
  free_energy:      -208.5599985
  entropy:           658.3042957
  heat_capacity:     360.8804195
  energy:            298.3343091

- temperature:       780.0000000
  free_energy:      -215.1663814
  entropy:           662.9629435
  heat_capacity:     361.1987298
  energy:            301.9447145

- temperature:       790.0000000
  free_energy:      -221.8190729
  entropy:           667.5662264
  heat_capacity:     361.5057245
  energy:            305.5582460

- temperature:       800.0000000
  free_energy:      -228.5175256
  entropy:           672.1153983
  heat_capacity:     361.8019259
  energy:            309.1747930

- temperature:       810.0000000
  free_energy:      -235.2612045
  entropy:           676.6116725
  heat_capacity:     362.0878269
  energy:            312.7942502

- temperature:       820.0000000
  free_energy:      -242.0495866
  entropy:           681.0562237
  heat_capacity:     362.3638932
  energy:            316.4165168

- temperature:       830.0000000
  free_energy:      -248.8821604
  entropy:           685.4501893
  heat_capacity:     362.6305645
  energy:            320.0414967

- temperature:       840.0000000
  free_energy:      -255.7584254
  entropy:           689.7946710
  heat_capacity:     362.8882569
  energy:            323.6690982

- temperature:       850.0000000
  free_energy:      -262.6778924
  entropy:           694.0907361
  heat_capacity:     363.1373637
  energy:            327.2992333

- temperature:       860.0000000
  free_energy:      -269.6400822
  entropy:           698.3394190
  heat_capacity:     363.3782573
  energy:            330.9318181

- temperature:       870.0000000
  free_energy:      -276.6445262
  entropy:           702.5417223
  heat_capacity:     363.6112906
  energy:            334.5667722

- temperature:       880.0000000
  free_energy:      -283.6907653
  entropy:           706.6986183
  heat_capacity:     363.8367976
  energy:            338.2040188

- temperature:       890.0000000
  free_energy:      -290.7783503
  entropy:           710.8110500
  heat_capacity:     364.0550952
  energy:            341.8434841

- temperature:       900.0000000
  free_energy:      -297.9068412
  entropy:           714.8799320
  heat_capacity:     364.2664840
  energy:            345.4850977

- temperature:       910.0000000
  free_energy:      -305.0758068
  entropy:           718.9061522
  heat_capacity:     364.4712491
  energy:            349.1287917

- temperature:       920.0000000
  free_energy:      -312.2848249
  entropy:           722.8905721
  heat_capacity:     364.6696615
  energy:            352.7745015

- temperature:       930.0000000
  free_energy:      -319.5334817
  entropy:           726.8340283
  heat_capacity:     364.8619783
  energy:            356.4221647

- temperature:       940.0000000
  free_energy:      -326.8213716
  entropy:           730.7373331
  heat_capacity:     365.0484442
  energy:            360.0717215

- temperature:       950.0000000
  free_energy:      -334.1480971
  entropy:           734.6012757
  heat_capacity:     365.2292915
  energy:            363.7231148

- temperature:       960.0000000
  free_energy:      -341.5132685
  entropy:           738.4266228
  heat_capacity:     365.4047416
  energy:            367.3762894

- temperature:       970.0000000
  free_energy:      -348.9165034
  entropy:           742.2141193
  heat_capacity:     365.5750049
  energy:            371.0311924

- temperature:       980.0000000
  free_energy:      -356.3574271
  entropy:           745.9644898
  heat_capacity:     365.7402819
  energy:            374.6877729

- temperature:       990.0000000
  free_energy:      -363.8356718
  entropy:           749.6784382
  heat_capacity:     365.9007635
  energy:            378.3459820

- temperature:      1000.0000000
  free_energy:      -371.3508767
  entropy:           753.3566495
  heat_capacity:     366.0566319
  energy:            382.0057728
