# Thermal properties / unit cell (natom)

unit:
  temperature:   K
  free_energy:   kJ/mol
  entropy:       J/K/mol
  heat_capacity: J/K/mol

natom: 15   
cutoff_frequency:    0.000
num_modes: 23040
num_integrated_modes: 23020

zero_point_energy:      66.0280079
high_T_entropy:       1520.1254966

thermal_properties:
- temperature:         0.0000000
  free_energy:        66.0280079
  entropy:             0.0000000
  heat_capacity:       0.0000000
  energy:             66.0280079

- temperature:        10.0000000
  free_energy:        66.0084484
  entropy:             7.7572818
  heat_capacity:      21.0701635
  energy:             66.0860212

- temperature:        20.0000000
  free_energy:        65.7961019
  entropy:            36.7226410
  heat_capacity:      67.1415239
  energy:             66.5305547

- temperature:        30.0000000
  free_energy:        65.2565318
  entropy:            71.3974381
  heat_capacity:     104.7548196
  energy:             67.3984550

- temperature:        40.0000000
  free_energy:        64.3700500
  entropy:           105.6256824
  heat_capacity:     133.2436226
  energy:             68.5950773

- temperature:        50.0000000
  free_energy:        63.1509839
  entropy:           137.8025025
  heat_capacity:     155.0565817
  energy:             70.0411090

- temperature:        60.0000000
  free_energy:        61.6217611
  entropy:           167.6631911
  heat_capacity:     172.4459581
  energy:             71.6815525

- temperature:        70.0000000
  free_energy:        59.8049255
  entropy:           195.3647007
  heat_capacity:     186.9406499
  energy:             73.4804546

- temperature:        80.0000000
  free_energy:        57.7208169
  entropy:           221.1605509
  heat_capacity:     199.4113500
  energy:             75.4136610

- temperature:        90.0000000
  free_energy:        55.3872575
  entropy:           245.2921816
  heat_capacity:     210.3381018
  energy:             77.4635539

- temperature:       100.0000000
  free_energy:        52.8198341
  entropy:           267.9644132
  heat_capacity:     220.0182123
  energy:             79.6162754

- temperature:       110.0000000
  free_energy:        50.0322631
  entropy:           289.3475817
  heat_capacity:     228.6708148
  energy:             81.8604971

- temperature:       120.0000000
  free_energy:        47.0367002
  entropy:           309.5847429
  heat_capacity:     236.4757574
  energy:             84.1868693

- temperature:       130.0000000
  free_energy:        43.8439801
  entropy:           328.7977892
  heat_capacity:     243.5839359
  energy:             86.5876927

- temperature:       140.0000000
  free_energy:        40.4638067
  entropy:           347.0916760
  heat_capacity:     250.1192489
  energy:             89.0566413

- temperature:       150.0000000
  free_energy:        36.9049062
  entropy:           364.5572818
  heat_capacity:     256.1800355
  energy:             91.5884985

- temperature:       160.0000000
  free_energy:        33.1751579
  entropy:           381.2734769
  heat_capacity:     261.8418477
  energy:             94.1789142

- temperature:       170.0000000
  free_energy:        29.2817054
  entropy:           397.3087667
  heat_capacity:     267.1612424
  energy:             96.8241957

- temperature:       180.0000000
  free_energy:        25.2310530
  entropy:           412.7226930
  heat_capacity:     272.1798494
  energy:             99.5211377

- temperature:       190.0000000
  free_energy:        21.0291493
  entropy:           427.5670697
  heat_capacity:     276.9281419
  energy:            102.2668925

- temperature:       200.0000000
  free_energy:        16.6814588
  entropy:           441.8870812
  heat_capacity:     281.4286131
  energy:            105.0588751

- temperature:       210.0000000
  free_energy:        12.1930233
  entropy:           455.7222502
  heat_capacity:     285.6982709
  energy:            107.8946958

- temperature:       220.0000000
  free_energy:         7.5685138
  entropy:           469.1072824
  heat_capacity:     289.7504960
  energy:            110.7721160

- temperature:       230.0000000
  free_energy:         2.8122756
  entropy:           482.0727930
  heat_capacity:     293.5963608
  energy:            113.6890180

- temperature:       240.0000000
  free_energy:        -2.0716344
  entropy:           494.6459252
  heat_capacity:     297.2455269
  energy:            116.6433876

- temperature:       250.0000000
  free_energy:        -7.0794159
  entropy:           506.8508730
  heat_capacity:     300.7068264
  energy:            119.6333024

- temperature:       260.0000000
  free_energy:       -12.2074971
  entropy:           518.7093190
  heat_capacity:     303.9886188
  energy:            122.6569258

- temperature:       270.0000000
  free_energy:       -17.4525126
  entropy:           530.2407998
  heat_capacity:     307.0989940
  energy:            125.7125034

- temperature:       280.0000000
  free_energy:       -22.8112824
  entropy:           541.4630111
  heat_capacity:     310.0458734
  energy:            128.7983607

- temperature:       290.0000000
  free_energy:       -28.2807957
  entropy:           552.3920606
  heat_capacity:     312.8370472
  energy:            131.9129019

- temperature:       300.0000000
  free_energy:       -33.8581956
  entropy:           563.0426794
  heat_capacity:     315.4801751
  energy:            135.0546082

- temperature:       310.0000000
  free_energy:       -39.5407664
  entropy:           573.4283979
  heat_capacity:     317.9827661
  energy:            138.2220369

- temperature:       320.0000000
  free_energy:       -45.3259223
  entropy:           583.5616931
  heat_capacity:     320.3521512
  energy:            141.4138195

- temperature:       330.0000000
  free_energy:       -51.2111975
  entropy:           593.4541126
  heat_capacity:     322.5954533
  energy:            144.6286597

- temperature:       340.0000000
  free_energy:       -57.1942375
  entropy:           603.1163786
  heat_capacity:     324.7195611
  energy:            147.8653313

- temperature:       350.0000000
  free_energy:       -63.2727912
  entropy:           612.5584770
  heat_capacity:     326.7311059
  energy:            151.1226757

- temperature:       360.0000000
  free_energy:       -69.4447042
  entropy:           621.7897324
  heat_capacity:     328.6364460
  energy:            154.3995994

- temperature:       370.0000000
  free_energy:       -75.7079122
  entropy:           630.8188733
  heat_capacity:     330.4416542
  energy:            157.6950709

- temperature:       380.0000000
  free_energy:       -82.0604353
  entropy:           639.6540879
  heat_capacity:     332.1525123
  energy:            161.0081180

- temperature:       390.0000000
  free_energy:       -88.5003733
  entropy:           648.3030724
  heat_capacity:     333.7745087
  energy:            164.3378250

- temperature:       400.0000000
  free_energy:       -95.0259002
  entropy:           656.7730740
  heat_capacity:     335.3128406
  energy:            167.6833294

- temperature:       410.0000000
  free_energy:      -101.6352610
  entropy:           665.0709275
  heat_capacity:     336.7724189
  energy:            171.0438193

- temperature:       420.0000000
  free_energy:      -108.3267665
  entropy:           673.2030886
  heat_capacity:     338.1578752
  energy:            174.4185307

- temperature:       430.0000000
  free_energy:      -115.0987908
  entropy:           681.1756631
  heat_capacity:     339.4735716
  energy:            177.8067443

- temperature:       440.0000000
  free_energy:      -121.9497671
  entropy:           688.9944328
  heat_capacity:     340.7236103
  energy:            181.2077833

- temperature:       450.0000000
  free_energy:      -128.8781851
  entropy:           696.6648791
  heat_capacity:     341.9118456
  energy:            184.6210105

- temperature:       460.0000000
  free_energy:      -135.8825877
  entropy:           704.1922042
  heat_capacity:     343.0418954
  energy:            188.0458263

- temperature:       470.0000000
  free_energy:      -142.9615686
  entropy:           711.5813498
  heat_capacity:     344.1171536
  energy:            191.4816658

- temperature:       480.0000000
  free_energy:      -150.1137698
  entropy:           718.8370148
  heat_capacity:     345.1408021
  energy:            194.9279973

- temperature:       490.0000000
  free_energy:      -157.3378789
  entropy:           725.9636708
  heat_capacity:     346.1158229
  energy:            198.3843198

- temperature:       500.0000000
  free_energy:      -164.6326274
  entropy:           732.9655768
  heat_capacity:     347.0450099
  energy:            201.8501610

- temperature:       510.0000000
  free_energy:      -171.9967881
  entropy:           739.8467923
  heat_capacity:     347.9309802
  energy:            205.3250760

- temperature:       520.0000000
  free_energy:      -179.4291738
  entropy:           746.6111896
  heat_capacity:     348.7761852
  energy:            208.8086448

- temperature:       530.0000000
  free_energy:      -186.9286349
  entropy:           753.2624648
  heat_capacity:     349.5829210
  energy:            212.3004714

- temperature:       540.0000000
  free_energy:      -194.4940578
  entropy:           759.8041481
  heat_capacity:     350.3533383
  energy:            215.8001822

- temperature:       550.0000000
  free_energy:      -202.1243638
  entropy:           766.2396140
  heat_capacity:     351.0894521
  energy:            219.3074239

- temperature:       560.0000000
  free_energy:      -209.8185068
  entropy:           772.5720893
  heat_capacity:     351.7931504
  energy:            222.8218632

- temperature:       570.0000000
  free_energy:      -217.5754726
  entropy:           778.8046620
  heat_capacity:     352.4662026
  energy:            226.3431848

- temperature:       580.0000000
  free_energy:      -225.3942769
  entropy:           784.9402888
  heat_capacity:     353.1102674
  energy:            229.8710906

- temperature:       590.0000000
  free_energy:      -233.2739647
  entropy:           790.9818023
  heat_capacity:     353.7269004
  energy:            233.4052987

- temperature:       600.0000000
  free_energy:      -241.2136083
  entropy:           796.9319173
  heat_capacity:     354.3175606
  energy:            236.9455420

- temperature:       610.0000000
  free_energy:      -249.2123070
  entropy:           802.7932376
  heat_capacity:     354.8836174
  energy:            240.4915679

- temperature:       620.0000000
  free_energy:      -257.2691854
  entropy:           808.5682614
  heat_capacity:     355.4263562
  energy:            244.0431367

- temperature:       630.0000000
  free_energy:      -265.3833926
  entropy:           814.2593872
  heat_capacity:     355.9469839
  energy:            247.6000213

- temperature:       640.0000000
  free_energy:      -273.5541012
  entropy:           819.8689182
  heat_capacity:     356.4466348
  energy:            251.1620064

- temperature:       650.0000000
  free_energy:      -281.7805064
  entropy:           825.3990677
  heat_capacity:     356.9263747
  energy:            254.7288876

- temperature:       660.0000000
  free_energy:      -290.0618251
  entropy:           830.8519636
  heat_capacity:     357.3872062
  energy:            258.3004709

- temperature:       670.0000000
  free_energy:      -298.3972950
  entropy:           836.2296520
  heat_capacity:     357.8300720
  energy:            261.8765719

- temperature:       680.0000000
  free_energy:      -306.7861740
  entropy:           841.5341021
  heat_capacity:     358.2558599
  energy:            265.4570154

- temperature:       690.0000000
  free_energy:      -315.2277392
  entropy:           846.7672089
  heat_capacity:     358.6654055
  energy:            269.0416349

- temperature:       700.0000000
  free_energy:      -323.7212864
  entropy:           851.9307978
  heat_capacity:     359.0594961
  energy:            272.6302720

- temperature:       710.0000000
  free_energy:      -332.2661293
  entropy:           857.0266270
  heat_capacity:     359.4388739
  energy:            276.2227758

- temperature:       720.0000000
  free_energy:      -340.8615988
  entropy:           862.0563911
  heat_capacity:     359.8042386
  energy:            279.8190028

- temperature:       730.0000000
  free_energy:      -349.5070424
  entropy:           867.0217239
  heat_capacity:     360.1562503
  energy:            283.4188161

- temperature:       740.0000000
  free_energy:      -358.2018237
  entropy:           871.9242015
  heat_capacity:     360.4955323
  energy:            287.0220854

- temperature:       750.0000000
  free_energy:      -366.9453220
  entropy:           876.7653443
  heat_capacity:     360.8226729
  energy:            290.6286863

- temperature:       760.0000000
  free_energy:      -375.7369311
  entropy:           881.5466201
  heat_capacity:     361.1382281
  energy:            294.2385002

- temperature:       770.0000000
  free_energy:      -384.5760595
  entropy:           886.2694461
  heat_capacity:     361.4427234
  energy:            297.8514140

- temperature:       780.0000000
  free_energy:      -393.4621297
  entropy:           890.9351913
  heat_capacity:     361.7366558
  energy:            301.4673195

- temperature:       790.0000000
  free_energy:      -402.3945775
  entropy:           895.5451784
  heat_capacity:     362.0204954
  energy:            305.0861134

- temperature:       800.0000000
  free_energy:      -411.3728517
  entropy:           900.1006862
  heat_capacity:     362.2946875
  energy:            308.7076972

- temperature:       810.0000000
  free_energy:      -420.3964138
  entropy:           904.6029509
  heat_capacity:     362.5596534
  energy:            312.3319764

- temperature:       820.0000000
  free_energy:      -429.4647372
  entropy:           909.0531684
  heat_capacity:     362.8157926
  energy:            315.9588609

- temperature:       830.0000000
  free_energy:      -438.5773075
  entropy:           913.4524959
  heat_capacity:     363.0634836
  energy:            319.5882641

- temperature:       840.0000000
  free_energy:      -447.7336213
  entropy:           917.8020534
  heat_capacity:     363.3030854
  energy:            323.2201036

- temperature:       850.0000000
  free_energy:      -456.9331863
  entropy:           922.1029251
  heat_capacity:     363.5349387
  energy:            326.8543000

- temperature:       860.0000000
  free_energy:      -466.1755210
  entropy:           926.3561611
  heat_capacity:     363.7593666
  energy:            330.4907776

- temperature:       870.0000000
  free_energy:      -475.4601541
  entropy:           930.5627790
  heat_capacity:     363.9766764
  energy:            334.1294636

- temperature:       880.0000000
  free_energy:      -484.7866244
  entropy:           934.7237646
  heat_capacity:     364.1871595
  energy:            337.7702884

- temperature:       890.0000000
  free_energy:      -494.1544805
  entropy:           938.8400736
  heat_capacity:     364.3910933
  energy:            341.4131850

- temperature:       900.0000000
  free_energy:      -503.5632801
  entropy:           942.9126327
  heat_capacity:     364.5887413
  energy:            345.0580893

- temperature:       910.0000000
  free_energy:      -513.0125903
  entropy:           946.9423407
  heat_capacity:     364.7803544
  energy:            348.7049397

- temperature:       920.0000000
  free_energy:      -522.5019870
  entropy:           950.9300696
  heat_capacity:     364.9661710
  energy:            352.3536771

- temperature:       930.0000000
  free_energy:      -532.0310546
  entropy:           954.8766657
  heat_capacity:     365.1464184
  energy:            356.0042446

- temperature:       940.0000000
  free_energy:      -541.5993859
  entropy:           958.7829505
  heat_capacity:     365.3213131
  energy:            359.6565876

- temperature:       950.0000000
  free_energy:      -551.2065819
  entropy:           962.6497216
  heat_capacity:     365.4910610
  energy:            363.3106537

- temperature:       960.0000000
  free_energy:      -560.8522512
  entropy:           966.4777537
  heat_capacity:     365.6558589
  energy:            366.9663923

- temperature:       970.0000000
  free_energy:      -570.5360103
  entropy:           970.2677993
  heat_capacity:     365.8158940
  energy:            370.6237550

- temperature:       980.0000000
  free_energy:      -580.2574830
  entropy:           974.0205897
  heat_capacity:     365.9713452
  energy:            374.2826949

- temperature:       990.0000000
  free_energy:      -590.0163003
  entropy:           977.7368358
  heat_capacity:     366.1223830
  energy:            377.9431672

- temperature:      1000.0000000
  free_energy:      -599.8121002
  entropy:           981.4172286
  heat_capacity:     366.2691704
  energy:            381.6051284
