material_id,formula_pretty,crystal_system,space_group,number,nsites,volume,density,density,energy,energy_per_atom,A_site,B_site,X_site,energy_above_hull,k_voigt,k_reuss,k_vrh
mp-756124,TbCrO3,Orthorhombic,Pnma,62,20,220.441656768699,7.80154169112465,7.59400027003276,-172.38896707,-8.6194483535,Tb,Cr,O,0,,,
mp-1208345,TbCrSe3,Orthorhombic,Pnma,62,20,428.371245799712,6.94343338023951,6.94343210710324,-122.22941224,-6.111470612,Tb,Cr,Se,0.0325351532500004,,,
mp-1187321,TbCuO3,Cubic,Pm-3m,221,5,54.13507164739,8.29638237160024,8.29638019909954,-32.75339464,-6.550678928,Tb,Cu,O,0.156334044500001,,,
mp-1187342,TbErO3,Cubic,Pm-3m,221,5,76.7526207343862,8.09542053899714,8.09541818057039,-37.9508102,-7.59016204,Tb,Er,O,0.825933458875001,,,
mp-756048,TbErO3,Orthorhombic,Pnma,62,20,283.466700496991,8.76779870405418,8.76779897593726,-166.569423,-8.32847115,Tb,Er,O,0.0884384083749996,,,
mp-19853,TbFeO3,Orthorhombic,Pnma,62,20,227.844607142655,7.66026368972852,7.69941902766979,-159.84945329,-7.9924726645,Tb,Fe,O,6.25558750009247E-05,175.698197810843,174.277957089894,174.988077450369
mp-1101339,TbGaO3,Trigonal,R-3c,167,10,113.796907080235,8.07372389464351,8.07372245432272,-71.55815355,-7.155815355,Tb,Ga,O,0.10628467008333,,,
mp-756290,TbGaO3,Orthorhombic,Pnma,62,20,228.397215440723,8.04532407330223,8.04532251716718,-144.29755058,-7.214877529,Tb,Ga,O,0.0471807335833301,,,
mp-756224,TbGdO3,Orthorhombic,Pnma,62,20,296.315366401169,8.16325409163827,8.16325406249554,-202.8277029,-10.141385145,Tb,Gd,O,0.094544135375001,,,
mp-981132,TbGeO3,Cubic,Pm-3m,221,5,60.0433847388916,7.73151277848752,7.73151044345155,-34.03807016,-6.807614032,Tb,Ge,O,0.616428658906251,,,
mp-755740,TbHoO3,Orthorhombic,Pnma,62,20,285.777089527098,8.64279049413228,8.64279017551717,-166.25619344,-8.312809672,Tb,Ho,O,0.0955574117500007,,,
mp-769263,TbInO3,Orthorhombic,Pnma,62,20,269.412868520027,7.93227756429492,7.93227761326865,-139.35037044,-6.967518522,Tb,In,O,0.0560910488750004,,,
mp-754145,TbLuO3,Orthorhombic,Pnma,62,20,273.160901583886,9.28601675808452,9.28601671424499,-167.50086422,-8.375043211,Tb,Lu,O,0.0662620235000002,,,
mp-1187347,TbMgO3,Cubic,Pm-3m,221,5,57.3542334691167,6.69460678600165,6.69460923060484,-32.84130957,-6.568261914,Tb,Mg,O,0.448994662000001,,,
mp-1232232,TbMgS3,Trigonal,R-3,148,30,704.866211933129,3.94965769689126,3.94965727192818,-151.91515809,-5.063838603,Tb,Mg,S,0.276894641500002,,,
mp-1232160,TbMgS3,Monoclinic,C2/m,12,10,262.689763125056,3.53265924300588,3.54184585998574,-99.48783039,-4.9743915195,Tb,Mg,S,0.353715234500002,,,
mp-1232315,TbMgSe3,Monoclinic,C2/m,12,20,552.974503786004,5.04623373180307,5.04623371286904,-90.23421672,-4.511710836,Tb,Mg,Se,0.304460560666668,,,
mp-1237963,TbMgSe3,Monoclinic,C2/m,12,10,289.8299134217,4.81392441671804,4.8139237370399,-89.02166631,-4.4510833155,Tb,Mg,Se,0.343553750666668,,,
mp-1232347,TbMgSe3,Trigonal,R-3,148,30,802.337910874862,5.21682676839238,5.21682713559817,-137.23916294,-4.57463876466667,Tb,Mg,Se,0.234322184333334,,,
mp-22055,TbMnO3,Orthorhombic,Pnma,62,20,224.775805511044,7.73804649572613,7.53917790139772,-167.69427623,-8.3847138115,Tb,Mn,O,0,155.493943095673,153.226758453198,154.360350774436
mp-1188379,TbMnO3,Orthorhombic,Pnma,62,20,270.822953156716,6.42237156742126,6.42237230813017,-153.82208124,-7.691104062,Tb,Mn,O,0.314236524500002,,,
mp-755865,TbNiO3,Orthorhombic,Pnma,62,20,211.050979576341,8.35944610371443,8.07404338455842,-144.93382708,-7.246691354,Tb,Ni,O,0,,,
mp-1187352,TbNiO3,Cubic,Pm-3m,221,5,52.2590074523817,8.44002486323603,8.44002195134007,-31.39816011,-6.279632022,Tb,Ni,O,0.198668504,,,
mp-770347,TbNiO3,Trigonal,R-3c,167,10,108.192536376577,8.15337798701662,8.15337603949236,-65.48279698,-6.548279698,Tb,Ni,O,0.041731725,,,
mp-1187359,TbOsO3,Cubic,Pm-3m,221,5,62.2692168576668,10.5909310971634,10.5909283623502,-38.03874157,-7.607748314,Tb,Os,O,0.726862456333327,,,
mp-5692,TbRhO3,Orthorhombic,Pnma,62,20,229.553384511111,8.96494281865248,8.68324390172682,-150.59128891,-7.5295644455,Tb,Rh,O,0,190.671787605929,180.3383302419,185.505058923914
mp-31119,TbScO3,Orthorhombic,Pnma,62,20,247.244372281171,6.76667675573284,6.63000273905483,-174.14971808,-8.707485904,Tb,Sc,O,0.0184044507500012,166.831018581004,161.601265596876,164.21614208894
mp-1188262,TbScS3,Orthorhombic,Pnma,62,20,427.469210839935,4.66268300382345,4.61669157750455,-133.27938718,-6.663969359,Tb,Sc,S,0.00375236549999958,,,
mp-1187364,TbSiO3,Cubic,Pm-3m,221,5,51.8242769455571,7.53009461066892,7.53009267230505,-36.92051082,-7.384102164,Tb,Si,O,0.709497433999994,,,
mp-756118,TbSmO3,Orthorhombic,Pnma,62,20,301.429262682347,7.87293559157527,7.87293470461715,-165.34007186,-8.267003593,Tb,Sm,O,0.0827012260000011,,,
mp-768409,TbTiO3,Orthorhombic,Pnma,62,20,236.76811009382,7.1477474210163,7.14774624466748,-173.79799413,-8.6898997065,Tb,Ti,O,0.055962047999996,,,
mp-756762,TbTmO3,Orthorhombic,Pnma,62,20,279.388145521821,8.93561883664132,8.93561849885622,-166.73232855,-8.3366164275,Tb,Tm,O,0.0797585176250006,,,
mp-1187389,TbVO3,Cubic,Pm-3m,221,5,56.7525509216191,7.54494701087784,7.5449461832156,-38.50436581,-7.700873162,Tb,V,O,0.400170577000001,,,
mp-554811,TbVO3,Orthorhombic,Pnma,62,20,226.459033616339,7.56331037182115,7.46848018195969,-172.95219406,-8.647609703,Tb,V,O,0,,,
mp-687205,TcPbO3,Cubic,Fd-3m,227,20,286.171076891421,8.197885205224,8.19788926918502,-140.47862371,-7.0239311855,Tc,Pb,O,0.0635834993124966,,,
mp-1187400,TcSnO3,Cubic,Pm-3m,221,5,63.2438774151435,6.95021123489995,6.95021033856286,-34.63735774,-6.927471548,Tc,Sn,O,0.330657785750006,,,
mp-1187421,ThBeO3,Cubic,Pm-3m,221,5,48.9996501056674,9.79550321371273,9.79549904147901,-41.22988581,-8.245977162,Th,Be,O,0.402925639000001,,,
mp-1187416,ThBO3,Cubic,Pm-3m,221,5,49.9227807301924,9.67420545449465,9.67420711238703,-38.81988711,-7.763977422,Th,B,O,1.18999324515625,,,
mp-1189441,ThCrS3,Orthorhombic,Pnma,62,20,417.174117079126,6.05392663246887,6.14753805935046,-145.84719911,-7.2923599555,Th,Cr,S,0.0198377746666623,,,
mp-1188731,ThCrSe3,Orthorhombic,Pnma,62,20,473.955399376964,7.30025073382181,7.3002509905213,-133.87267831,-6.6936339155,Th,Cr,Se,0.0268417863333301,,,
mp-1187487,ThCuO3,Cubic,Pm-3m,221,5,57.8833116471767,9.85658472338887,9.85658418328915,-36.64619931,-7.329239862,Th,Cu,O,0.530382224000006,,,
mp-11778,ThMnSe3,Orthorhombic,Cmcm,63,10,242.443564241189,7.17596716045662,7.1955720603599,-66.21632729,-6.621632729,Th,Mn,Se,0,,,
mp-1187460,ThMoO3,Cubic,Pm-3m,221,5,69.3905063834145,8.99724328850528,8.99724104247026,-39.22344956,-7.844689912,Th,Mo,O,0.948727141500003,,,
mp-1187442,ThPdO3,Cubic,Pm-3m,221,5,66.2234713301345,9.6903062369386,9.69030780622198,-35.35971452,-7.071942904,Th,Pd,O,0.933890280999997,,,
mp-1187556,ThReO3,Cubic,Pm-3m,221,5,64.0767346473287,12.0826248720403,12.0826228668203,-43.0778385,-8.6155677,Th,Re,O,1.09800812466667,,,
mp-1187425,ThSiO3,Cubic,Pm-3m,221,5,58.5934045768331,8.7321810952055,8.73218189958028,-38.10839707,-7.621679414,Th,Si,O,1.1082461215,,,
mp-1079374,ThTaN3,Orthorhombic,Cmcm,63,10,131.286977530754,11.509980946617,11.5099831260821,-101.86190775,-10.186190775,Th,Ta,N,0.1325090125,,,
mp-1105961,ThTaN3,Orthorhombic,Pnma,62,20,262.858826007086,11.4975071057891,11.3812875887402,-206.35225623,-10.3176128115,Th,Ta,N,0,,,
mp-1187536,ThTaN3,Orthorhombic,Imma,74,10,132.374280872025,11.4154396153344,11.4154404249034,-205.89530157,-10.2947650785,Th,Ta,N,0.0230357574999989,,,
mp-10732,ThTaN3,Cubic,Pm-3m,221,5,67.1430690742335,11.2529158314705,11.2529156512113,-50.43573606,-10.087147212,Th,Ta,N,0.231308497500001,,,
mp-1187448,ThWO3,Cubic,Pm-3m,221,5,70.7019297979161,10.8948179208116,10.8948156121244,-39.17919714,-7.835839428,Th,W,O,1.1386145865,,,
mp-1248327,TiAlO3,Orthorhombic,Cmcm,63,30,314.383114858112,3.89318253447099,3.88651000886647,-240.33871107,-8.011290369,Ti,Al,O,0.237403721833337,,,
mp-1341716,TiAlO3,Hexagonal,P6_3cm,185,30,314.092720217299,3.89678197906472,3.89678197906472,-239.6546936,-7.98848978666667,Ti,Al,O,0.261295706833337,,,
mp-1475723,TiAlO3,Cubic,Pm-3m,221,5,57.548401321217,3.5446998346849,3.5446998346849,-36.26934206,-7.253868412,Ti,Al,O,0.995916567500005,,,
mp-774520,TiAlO3,Trigonal,R-3,148,10,97.8441792942347,4.16972803331017,4.17029702193429,-81.83640325,-8.183640325,Ti,Al,O,0.066047369500005,,,
mp-1405134,TiAlO3,Hexagonal,P6_3/mmc,194,10,105.637844552873,3.86209713977263,3.86209713977263,-79.91863179,-7.991863179,Ti,Al,O,0.257922314500004,,,
mp-1187465,TiBeO3,Cubic,Pm-3m,221,5,38.9203762822689,4.47459677035731,4.47459495579432,-35.97378402,-7.194756804,Ti,Be,O,1.029820195,,,
mp-9716,TiBO3,Trigonal,R-3c,167,10,95.7012458967045,3.7019371256176,3.70193787766155,-84.70188259,-8.470188259,Ti,B,O,0.0729435255333328,184.980508836507,172.872224986188,178.926366911348
mp-20940,TiCdO3,Orthorhombic,Pmc2_1,26,20,229.444717046174,6.02935245047973,6.02935204591869,-139.18299109,-6.9591495545,Ti,Cd,O,0.0395681674999997,150.349552853324,145.375997742517,147.862775297921
mp-22345,TiCdO3,Cubic,Pm-3m,221,5,68.683244319166,5.03544598353351,5.03544660372793,-24.93649773,-4.987299546,Ti,Cd,O,2.008286217,,,
mp-1016846,TiCdO3,Cubic,Pm-3m,221,5,58.7267879298899,5.88914835859716,5.88914762791887,-34.00530817,-6.801061634,Ti,Cd,O,0.198236043000001,,,
mp-14550,TiCdO3,Orthorhombic,Pnma,62,20,227.386538004493,6.08392686353597,6.08392663336918,-139.12948534,-6.956474267,Ti,Cd,O,0.0425426290000006,,,
mp-1101047,TiCdO3,Triclinic,P1,1,10,277.936102840008,2.4887070316452,2.48870749040961,-72.40129856,-7.240129856,Ti,Cd,O,1.11453518,,,
mp-5052,TiCdO3,Orthorhombic,Pna2_1,33,20,220.54685782643,6.27260383850362,6.01330622818518,-139.20015806,-6.960007903,Ti,Cd,O,0.0387445740000008,,,
mp-13641,TiCdO3,Trigonal,R-3,148,10,119.044147779614,5.81046230652629,5.63365361885891,-69.98527295,-6.998527295,Ti,Cd,O,0,153.389530641334,146.858083161648,150.123806901491
mp-1179551,TiCdO3,Triclinic,P-1,2,10,195.394275768781,3.54002966957186,3.54003008802112,-68.28217575,-6.828217575,Ti,Cd,O,0.165933056,,,
mp-1179263,TiCdO3,Orthorhombic,Pmc2_1,26,20,256.346528409221,5.3966132311477,5.39661296773158,-135.54775638,-6.777387819,Ti,Cd,O,0.2200661435,,,
mp-1179381,TiCoO3,Triclinic,P-1,2,10,168.779860804674,3.04596509463835,3.04596457252891,-76.9814054,-7.69814054,Ti,Co,O,0.129342192500003,,,
mp-19424,TiCoO3,Trigonal,R-3,148,10,102.011734456397,5.03959242952288,4.864779403286,-78.25815,-7.825815,Ti,Co,O,0.00315470800000206,177.738397454082,172.432319573114,175.085358513598
mp-756083,TiCrO3,Triclinic,P1,1,30,336.020931580657,4.38418161511454,4.52830930842562,-263.50776542,-8.78359218066667,Ti,Cr,O,0.11987618733334,,,
mp-755606,TiCrO3,Orthorhombic,Pnma,62,20,210.170209748496,4.6729641728403,4.79090551438109,-174.76783712,-8.738391856,Ti,Cr,O,0.115041256666673,,,
mp-1187469,TiCuO3,Cubic,Pm-3m,221,5,57.1010052794218,4.63579448309612,4.63579531173148,-34.46260716,-6.892521432,Ti,Cu,O,0.541966302000001,,,
mp-1147748,TiCuO3,Tetragonal,P4/mmm,123,5,60.8647417455689,4.34912755171359,4.34912748746663,-35.89532812,-7.179065624,Ti,Cu,O,0.249396300000003,,,
mp-19270,TiFeO3,Trigonal,R3c,161,10,102.294824366714,4.92538533520711,4.62264311688446,-80.56014983,-8.056014983,Ti,Fe,O,0.0317737499999993,,,
mp-1277107,TiFeO3,Triclinic,P-1,2,20,219.16653632663,4.59779523140805,4.59779523140805,-162.16384082,-8.108192041,Ti,Fe,O,0,,,
mp-19417,TiFeO3,Trigonal,R-3,148,10,102.675778590977,4.90711085630544,4.62169825575539,-80.78646967,-8.078646967,Ti,Fe,O,0.0120412149999982,,,
mp-19074,TiFeO3,Orthorhombic,Cmcm,63,10,101.613031568044,4.95843318547193,4.95843362164726,-79.68020478,-7.968020478,Ti,Fe,O,0.123118426,,,
mp-1179354,TiFeO3,Triclinic,P-1,2,10,161.98965776184,3.11033083694859,3.1103306662498,-80.13411744,-8.013411744,Ti,Fe,O,0.0752487789999989,,,
mp-20073,TiFeO3,Orthorhombic,Pnma,62,20,208.771565957289,4.82672461159271,4.93608455457464,-166.95829817,-8.3479149085,Ti,Fe,O,0.0718263530000005,,,
mp-694948,TiFeO3,Triclinic,P1,1,80,868.100940804489,4.64315983656442,4.64315968261789,-642.42823622,-8.03035295275,Ti,Fe,O,0.28066725625,,,
mp-780260,TiGeO3,Trigonal,R-3,148,10,142.287366062781,3.93301914664423,3.93301984755095,-77.42099188,-7.742099188,Ti,Ge,O,0.0410488381666667,50.5263233970375,6.27529665536342,28.4008100262004
mp-1105715,TiGeS3,Orthorhombic,Pnma,62,20,434.358997858676,3.31377628721238,3.35785553236885,-117.29696426,-5.864848213,Ti,Ge,S,0,,,
mp-556925,TiMnO3,Orthorhombic,Pnma,62,20,212.501527668078,4.71365420174659,4.76866521865915,-174.42999076,-8.721499538,Ti,Mn,O,0.0599898020000005,,,
mp-743867,TiMnO3,Triclinic,P-1,2,10,113.569332584357,4.40989964445813,4.42963477405686,-83.86374155,-8.386374155,Ti,Mn,O,0.200412394999999,,,
mp-697089,TiMnO3,Triclinic,P-1,2,10,98.9266567412891,5.06263302412878,5.06263303624455,-84.60595777,-8.460595777,Ti,Mn,O,0.863277614000001,,,
mp-2234285,TiMnO3,Monoclinic,C2/m,12,10,113.838438128472,4.3994749718886,4.39947572343844,-83.89663855,-8.389663855,Ti,Mn,O,0.199470642,,,
mp-19376,TiMnO3,Trigonal,R3c,161,10,106.624811012395,4.69711837826263,4.47770225666327,-85.48165172,-8.548165172,Ti,Mn,O,0.0363191124999993,149.514146021975,140.763538350012,145.138842185993
mp-19082,TiMnO3,Trigonal,R-3,148,10,107.832630512587,4.6445065561731,4.44341920274457,-85.81721962,-8.581721962,Ti,Mn,O,0,162.08323238927,156.150223152268,159.116727770769
mp-1246065,TiMoN3,Triclinic,P-1,2,20,272.767065536739,4.52507942739771,4.52507935491094,-188.04125882,-9.402062941,Ti,Mo,N,0.113010589733335,,,
mp-1216784,TiMoS3,Monoclinic,P2_1/m,11,10,170.296649170435,4.68045259849215,4.68045271651245,-72.95873396,-7.295873396,Ti,Mo,S,0.0400710959999993,,,
mp-675030,TiNiO3,Triclinic,P1,1,40,414.190177074512,4.95715461321203,5.0487521696965,-309.89336945,-7.74733423625,Ti,Ni,O,0.0203190304999996,,,
mp-531689,TiNiO3,Triclinic,P1,1,60,624.09541267795,4.93483377378596,5.02549612937114,-464.81785916,-7.74696431933333,Ti,Ni,O,0.0159401091666656,,,
mp-690546,TiNiO3,Triclinic,P1,1,30,300.537288979858,5.12383526683512,4.95335198437506,-219.51288584,-7.31709619466667,Ti,Ni,O,0.0184076983333323,,,
mp-850194,TiNiO3,Trigonal,R3c,161,10,100.008803254046,5.1325600352811,5.046275005869,-77.62275268,-7.762275268,Ti,Ni,O,0.0139521449999993,171.76503469178,170.138047026502,170.951540859141
mp-18732,TiNiO3,Trigonal,R-3,148,10,100.192931072183,5.12312776225902,4.94762590292603,-73.33886829,-7.333886829,Ti,Ni,O,0,179.634747759392,175.350803221741,177.492775490566
mp-698587,TiNiO3,Triclinic,P1,1,50,516.75037336687,4.96662618174428,4.96662605110575,-365.75576614,-7.3151153228,Ti,Ni,O,0.0200128139999993,,,
mp-20459,TiPbO3,Tetragonal,P4mm,99,5,64.5065643186649,7.80155647169271,7.32013758040395,-38.03602334,-7.607204668,Ti,Pb,O,0,81.3345102353857,43.6758876652911,62.5051989503384
mp-19845,TiPbO3,Cubic,Pm-3m,221,5,62.5258179228558,8.04870085742585,8.04778217495105,-37.83684644,-7.567369288,Ti,Pb,O,0.0412217460000015,170.981130383742,170.981130383742,170.981130383742
mp-1106215,TiPbO3,Tetragonal,I4/m,87,20,294.199911268428,6.84230803683385,6.53186669945876,-152.11586253,-7.6057931265,Ti,Pb,O,0.00310551100000112,,,
mp-989613,TiPN3,Orthorhombic,Amm2,38,5,65.0104461186527,3.08710668755692,3.08710694034338,-42.26798267,-8.453596534,Ti,P,N,0.030168741333334,,,
mp-989624,TiPN3,Monoclinic,C2/c,15,20,196.48484372343,4.08569290477075,4.00193864069689,-169.3577849,-8.467889245,Ti,P,N,0.016177566833333,,,
mp-996940,TiReN3,Trigonal,R3c,161,10,106.788080079347,8.58644595477532,8.58644515289253,-95.83221475,-9.583221475,Ti,Re,N,0.0814096536666664,,,
mp-1018639,TiSnO3,Cubic,Pm-3m,221,5,61.6640976150685,5.77824886934596,5.77824737271099,-37.67152995,-7.53430599,Ti,Sn,O,0.158022688999999,,,
mp-754246,TiSnO3,Trigonal,R-3,148,10,156.797833052206,4.54483962421693,4.57223308156418,-76.92005148,-7.692005148,Ti,Sn,O,0,43.8591527673632,8.38986878456892,26.1245107759661
mp-755657,TiVO3,Trigonal,R-3,148,10,104.657849057849,4.65857578353018,4.71939240229558,-89.32055979,-8.932055979,Ti,V,O,0,170.710983826842,164.647895095839,167.67943946134
mp-1216763,TiVO3,Trigonal,R3c,161,10,103.873200599808,4.69376622999861,4.48107067411998,-85.76473126,-8.576473126,Ti,V,O,0.0194346620000161,,,
mp-753428,TiVO3,Triclinic,P1,1,20,216.749514151597,4.49880151367951,4.73666452233554,-179.05882317,-8.9529411585,Ti,V,O,0.0591484255000161,,,
mp-1246544,TiWN3,Triclinic,P-1,2,20,331.817490978312,5.47933192788603,5.47933184011319,-194.74800015,-9.7374000075,Ti,W,N,0.300235536500001,,,
mp-1016927,TiZnO3,Cubic,Pm-3m,221,5,56.7598171196172,4.71816371378167,4.71816514827466,-33.3565451,-6.67130902,Ti,Zn,O,0.536670181166668,,,
mp-635713,TiZnO3,Triclinic,P-1,2,10,148.205802474727,3.61392206057964,3.6488723882463,-71.08860025,-7.108860025,Ti,Zn,O,0.0953439101666689,69.6395264967192,57.9965017111367,63.818014103928
mp-1343137,TiZnO3,Orthorhombic,Pnma,62,20,205.801900540633,5.20504638355926,5.20504638355926,-142.09263173,-7.1046315865,Ti,Zn,O,0.103737136166668,,,
mp-14142,TiZnO3,Trigonal,R-3,148,10,106.962301335514,5.0074111381473,5.00740995842762,-71.79534678,-7.179534678,Ti,Zn,O,0.028187833166669,173.694574888956,167.67590754626,170.685241217608
mp-1078470,TiZnO3,Trigonal,R3c,161,10,106.484347819712,5.02988683347297,5.02988540821869,-71.52633909,-7.152633909,Ti,Zn,O,0.0549266201666683,,,
mp-998154,TlAgBr3,Monoclinic,Cm,8,5,158.153889016051,5.79534882632099,5.79535386208059,-12.56400237,-2.512800474,Tl,Ag,Br,0.0434630777500007,,,
mp-998608,TlAgBr3,Trigonal,R3c,161,10,316.115026187081,5.79888255324401,5.79888275517461,-25.23409582,-2.523409582,Tl,Ag,Br,0.0366184177500006,,,
mp-998748,TlAgCl3,Trigonal,R3c,161,10,269.836445225264,5.1521512474615,5.15215040052568,-27.92574155,-2.792574155,Tl,Ag,Cl,0.0164399260000017,,,
mp-1400626,TlAgF3,Trigonal,R3m,160,5,86.8290229165891,7.06156266543868,7.06156266543868,-18.10454345,-3.62090869,Tl,Ag,F,0.0148931529999965,,,
mp-1187494,TlBO3,Cubic,Pm-3m,221,5,44.1707814801498,9.89435580809286,9.89435640533714,-26.0138085,-5.2027617,Tl,B,O,1.11008528116667,,,
mp-29798,TlBrO3,Trigonal,R3m,160,5,87.9711588745669,6.2722039936004,5.62923640467961,-19.97141778,-3.994283556,Tl,Br,O,0.0072877472499977,,,
mp-1179184,TlBrO3,Monoclinic,Cm,8,5,97.8432346897586,5.63935826288119,5.63935819500725,-17.83289504,-3.566579008,Tl,Br,O,0.489371731249998,,,
mp-28809,TlBS3,Monoclinic,P2_1/c,14,20,459.403536549856,4.50213423653183,4.50213402991322,-93.22679882,-4.661339941,Tl,B,S,0.00687656824999561,,,
mp-29959,TlBSe3,Monoclinic,Cc,9,10,250.633483231747,5.99031722718172,5.7524701939024,-41.34711589,-4.134711589,Tl,B,Se,0.00105152128889063,,,
mp-28219,TlCdBr3,Orthorhombic,Pnma,62,20,612.373116949453,6.0361921605079,5.75778993391813,-50.42613674,-2.521306837,Tl,Cd,Br,0.000583598499998672,,,
mp-28218,TlCdCl3,Orthorhombic,Pnma,62,20,535.223300334843,5.25136021074654,4.9889421591735,-56.82116693,-2.8410583465,Tl,Cd,Cl,0,,,
mp-1412222,TlCdF3,Trigonal,R3m,160,5,86.2746592765506,7.19437304743735,6.82721028288531,-19.08681588,-3.817363176,Tl,Cd,F,0.00890207625000361,,,
mp-998623,TlCdF3,Monoclinic,Cm,8,5,86.5262629373115,7.17345303385804,6.83445995118414,-19.08417149,-3.816834298,Tl,Cd,F,0.00879731225000313,,,
mp-998759,TlCdF3,Orthorhombic,Pbam,55,40,678.630271458792,7.31699848333388,6.9447599756731,-153.03633191,-3.82590829775,Tl,Cd,F,0,,,
mp-27252,TlCdI3,Orthorhombic,Pnma,62,20,777.884548756391,5.95583909494738,5.95583892900885,-43.58792404,-2.179396202,Tl,Cd,I,0.0166159608333332,,,
mp-1207995,TlCdN3,Cubic,Pm-3m,221,5,89.4591628076185,6.66030521814695,6.66030453066894,-17.75666947,-3.551333894,Tl,Cd,N,1.89190767433333,,,
mp-29738,TlClO3,Trigonal,R3m,160,5,94.2329605264689,5.07211520570899,5.07211552015259,-20.56721698,-4.113443396,Tl,Cl,O,0.0619930265555553,,,
mp-567430,TlCoCl3,Hexagonal,P6_3cm,185,30,729.661163624284,5.04777257183128,4.88632227836637,-112.34479933,-3.74482664433333,Tl,Co,Cl,0.125247484666667,,,
mp-569753,TlCoCl3,Hexagonal,P6_3/mmc,194,10,243.614271896697,5.03961115769519,4.94487966168549,-37.43902242,-3.743902242,Tl,Co,Cl,0.0101247253333332,19.1878771542615,18.7441072142121,18.9659921842368