material_id,formula_pretty,crystal_system,space_group,number,nsites,volume,density,density,energy,energy_per_atom,A_site,B_site,X_site,energy_above_hull,k_voigt,k_reuss,k_vrh
mp-550908,SrHfO3,Tetragonal,P4/mbm,127,10,136.002123191472,7.6703058011099,7.49018875866704,-86.85963733,-8.685963733,Sr,Hf,O,0.0128695209999989,157.841523085911,154.511360778654,156.176441932282
mp-3378,SrHfO3,Orthorhombic,Pnma,62,20,270.91215539489,7.70122605209976,7.50874039698422,-173.97577443,-8.6987887215,Sr,Hf,O,0,156.752037174758,156.715118026342,156.73357760055
mp-4551,SrHfO3,Cubic,Pm-3m,221,5,71.0199731386492,7.34425703345636,7.34425744784706,-43.3293164,-8.66586328,Sr,Hf,O,0.0329575589999997,163.237383621318,163.237383621318,163.237383621318
mp-13108,SrHfO3,Tetragonal,P4mm,99,5,71.0084837378492,7.3454453578395,7.33550571780208,-43.32958294,-8.665916588,Sr,Hf,O,0.0328964169999999,152.968947385771,151.601956533799,152.285451959785
mp-13109,SrHfO3,Orthorhombic,Imma,74,10,135.632346058469,7.69121750669352,7.49338541195359,-86.96082833,-8.696082833,Sr,Hf,O,0.00268035199999872,157.140095976219,155.649028990196,156.394562483208
mp-3721,SrHfO3,Tetragonal,I4/mcm,140,10,135.600497491797,7.69302394736362,7.49165439376345,-86.92702753,-8.692702753,Sr,Hf,O,0.00606209200000052,157.77172985303,154.000585200312,155.886157526671
mp-4673,SrHfO3,Orthorhombic,Cmcm,63,20,271.369847917292,7.68823716035505,7.49368188057462,-173.88673873,-8.6943369365,Sr,Hf,O,0.00444955100000044,155.038174287481,154.234234769664,154.636204528573
mp-1208643,SrHfS3,Orthorhombic,Pnma,62,20,464.280143999116,5.18326371954997,5.09957341908663,-132.37180507,-6.6185902535,Sr,Hf,S,0,,,
mp-971996,SrHoO3,Cubic,Pm-3m,221,5,82.618832754273,6.04066339636104,6.04066398028435,-34.34928843,-6.869857686,Sr,Ho,O,0.236222593875,,,
mp-972021,SrInO3,Cubic,Pm-3m,221,5,74.8541023857571,5.55559522506516,5.55559595277912,-27.80708073,-5.561416146,Sr,In,O,0.194183900499998,,,
mp-1105160,SrIrO3,Orthorhombic,Pnma,62,20,254.946123856964,8.5411482045053,8.54114671204973,-133.41220719,-6.6706103595,Sr,Ir,O,0.0276744060000054,,,
mp-1193907,SrIrO3,Monoclinic,C2/c,15,30,384.277140026383,8.49985232484945,8.30260976826299,-200.60512512,-6.686837504,Sr,Ir,O,0.00346829633333723,,,
mp-1016848,SrIrO3,Cubic,Pm-3m,221,5,63.9063497162103,8.51845175673581,8.51845027796859,-32.71149486,-6.542298972,Sr,Ir,O,0.141754298000005,,,
mp-17097,SrIrO3,Orthorhombic,Cmcm,63,30,384.244366966925,8.50057729622071,8.32309731094355,-200.13289593,-6.671096531,Sr,Ir,O,0.0193014600000048,,,
mp-24419,SrLiH3,Cubic,Pm-3m,221,5,99.303725454904,1.63179583822076,1.63179549493968,-13.89927932,-2.779855864,Sr,Li,H,0.457782857499999,,,
mp-1187183,SrLiO3,Cubic,Pm-3m,221,5,59.7506531169679,3.96188340301201,3.96188461645059,-24.85488184,-4.970976368,Sr,Li,O,0.287957961000002,,,
mp-1187182,SrMgO3,Cubic,Pm-3m,221,5,65.2352226171027,4.07078738451432,4.07078656088051,-27.68538425,-5.53707685,Sr,Mg,O,0.220685895999999,,,
mp-1193101,SrMnO3,Hexagonal,P6_3/mmc,194,30,340.510920501061,5.5756112974259,5.24277816177348,-205.7599829,-6.85866609666667,Sr,Mn,O,0.0150455418333371,,,
mp-559975,SrMnO3,Orthorhombic,C222_1,20,20,246.820282814986,5.12804029876735,5.2183939688995,-148.30293046,-7.415146523,Sr,Mn,O,0,,,
mp-1017466,SrMnO3,Cubic,Pm-3m,221,20,231.649382961115,5.46387968165176,5.40552288730541,-34.13863415,-6.82772683,Sr,Mn,O,0.0492473495000034,,,
mp-19001,SrMnO3,Hexagonal,P6_3/mmc,194,20,234.105017935749,5.40656654004649,5.14126182758994,-137.35416028,-6.867708014,Sr,Mn,O,0.00306365100000416,,,
mp-1218206,SrMnO3,Hexagonal,P6_3mc,186,20,245.700826071162,5.15140456410928,5.15135028290573,-137.347749,-6.86738745,Sr,Mn,O,0.0126189035000044,,,
mp-1542758,SrMoO3,Monoclinic,C2/m,12,10,135.042597946866,5.69466883987029,5.69466835662628,-70.23853245,-7.023853245,Sr,Mo,O,0,,,
mp-1187247,SrMoO3,Tetragonal,I4/mcm,140,10,134.510726440028,5.71718624184237,5.7171862145662,-69.79894847,-6.979894847,Sr,Mo,O,0.0402377300000012,,,
mp-1078716,SrMoO3,Orthorhombic,Imma,74,10,126.325248824128,6.08764187477518,5.70325788249693,-70.10218289,-7.010218289,Sr,Mo,O,0.00909267599999986,,,
mp-18747,SrMoO3,Cubic,Pm-3m,221,5,67.946230900344,5.65905469952462,5.6519559088508,-34.68662301,-6.937324602,Sr,Mo,O,0.0840975250000007,,,
mp-7006,SrNbO3,Cubic,Pm-3m,221,5,67.4037267257946,5.62986664390379,5.55014819548125,-40.44490225,-8.08898045,Sr,Nb,O,0.0130552904999934,173.142199696713,173.142199696713,173.142199696713
mp-10339,SrNbO3,Orthorhombic,Pnma,62,20,266.950371096918,5.68606053940396,5.59469309648905,-161.90118802,-8.095059401,Sr,Nb,O,0.00737663449999282,,,
mp-1173150,SrNbO3,Tetragonal,P4/mbm,127,20,267.105453088657,5.68275920061284,5.58407509081787,-162.03296002,-8.101648001,Sr,Nb,O,0.00916577399999241,,,
mp-1101333,SrNdO3,Cubic,Pm-3m,221,5,90.9103567502843,5.11183556965896,5.11183589704146,-33.30801512,-6.661603024,Sr,Nd,O,0.358035681749998,,,
mp-1291939,SrNiO3,Orthorhombic,Pmma,51,20,237.625820138204,5.43143001389144,5.43142947104402,-105.30544039,-5.2652720195,Sr,Ni,O,0.0520742885000018,,,
mp-1299294,SrNiO3,Trigonal,R-3m,166,20,238.479031028116,5.41199788513919,5.411997788242,-105.05300517,-5.2526502585,Sr,Ni,O,0.053711680500002,,,
mp-752649,SrNiO3,Monoclinic,C2,5,5,57.024138040311,5.65834073047206,5.65845825392133,-29.81119199,-5.962238398,Sr,Ni,O,0.069953175000002,,,
mp-1101421,SrNiO3,Orthorhombic,Pnma,62,20,236.189631030608,5.46445669923145,5.46445679469933,-105.26157696,-5.263078848,Sr,Ni,O,0.0479806115000025,,,
mp-1281591,SrNiO3,Orthorhombic,Cmmm,65,20,235.068733435189,5.49051331801239,5.49051367068747,-105.01582465,-5.2507912325,Sr,Ni,O,0.0588251935000024,,,
mp-762506,SrNiO3,Cubic,Pm-3m,221,10,118.504656073658,5.44555823516331,5.49928088936489,-26.33335819,-5.266671638,Sr,Ni,O,0.0459517170000021,112.913915444378,112.913915443749,112.913915444063
mp-867195,SrOsO3,Cubic,Pm-3m,221,5,63.6338843556739,8.50307460184213,8.5030749128982,-36.04226758,-7.208453516,Sr,Os,O,0.0969186678181817,186.570576699331,186.570576699331,186.570576699331
mp-1105153,SrOsO3,Orthorhombic,Pnma,62,20,251.605592422843,8.60209283380246,8.58895701887185,-144.75775987,-7.2378879935,Sr,Os,O,0.061077385318181,,,
mp-20489,SrPbO3,Orthorhombic,Pnma,62,20,296.903770486839,7.66932683822855,7.4042228004924,-115.82790478,-5.791395239,Sr,Pb,O,0,105.071281874645,104.920306218684,104.995794046665
mp-1187190,SrPdO3,Cubic,Pm-3m,221,5,65.9134139643149,6.09760384930354,6.09760515546666,-28.05947566,-5.611895132,Sr,Pd,O,0.0701218604999987,,,
mp-20464,SrPrO3,Orthorhombic,Pnma,62,20,351.160586458146,5.23045005114207,5.23044936617588,-136.98693324,-6.849346662,Sr,Pr,O,0.145080522374998,,,
mp-9788,SrPS3,Monoclinic,P2_1/c,14,20,484.903484160253,2.94215357916279,2.88352901127944,-100.53779493,-5.0268897465,Sr,P,S,0,,,
mp-7198,SrPSe3,Monoclinic,P2_1/c,14,20,548.33371088174,4.30597686947303,4.22515626689378,-89.46518385,-4.4732591925,Sr,P,Se,0,,,
mp-1187202,SrPtO3,Cubic,Pm-3m,221,5,67.0436533800309,8.19084126274852,8.19084161543835,-29.07277955,-5.81455591,Sr,Pt,O,0.159764869749999,,,
mp-1207172,SrPuO3,Cubic,Pm-3m,221,5,83.0576288153301,7.58955992945495,7.58956173871938,-45.32386831,-9.064773662,Sr,Pu,O,0.0906437980000057,,,
mp-989623,SrReN3,Monoclinic,C2/c,15,20,340.571026303986,6.15996556505874,5.97732877386111,-166.80606875,-8.3403034375,Sr,Re,N,0,,,
mp-1187226,SrReO3,Cubic,Pm-3m,221,5,63.851842473577,8.36942673091232,8.36942414689458,-38.91247629,-7.782495258,Sr,Re,O,0.126121255133333,,,
mp-1208626,SrRhO3,Orthorhombic,Pnma,62,20,243.548569802502,6.50511596074928,6.28651538271612,-127.61633213,-6.3808166065,Sr,Rh,O,0.00581041374999547,,,
mp-1206846,SrRhO3,Orthorhombic,Imma,74,10,121.705525919472,6.50879110324123,6.24228151383936,-63.685996,-6.3685996,Sr,Rh,O,0.0175685137499961,,,
mp-1206840,SrRhO3,Tetragonal,I4/mcm,140,10,126.553030292752,6.2594774892982,6.25947941416624,-63.5576733,-6.35576733,Sr,Rh,O,0.0303996117499965,,,
mp-1017441,SrRhO3,Cubic,Pm-3m,221,5,64.2154733652284,6.16795145162704,6.16795158386246,-31.41939752,-6.283879504,Sr,Rh,O,0.0926481917499959,,,
mp-4346,SrRuO3,Cubic,Pm-3m,221,5,63.3911410469964,6.20007774291131,6.21129128674782,-34.46183577,-6.892367154,Sr,Ru,O,0.0413389979999943,,,
mp-34212,SrRuO3,Orthorhombic,Imma,74,10,121.670830639509,6.4605460591901,6.25551000116283,-138.61834624,-6.930917312,Sr,Ru,O,0.00492971999999536,,,
mp-22390,SrRuO3,Orthorhombic,Pnma,62,20,243.424790491307,6.45833979209722,6.24569292924064,-138.71122222,-6.935561111,Sr,Ru,O,0,166.579911672097,166.245757162476,166.412834417286
mp-611033,SrRuO3,Orthorhombic,Pnma,62,20,353.541493463213,4.44677651670473,4.46574523930764,-127.67263791,-6.3836318955,Sr,Ru,O,0.509728028499995,,,
mp-1179112,SrRuO3,Orthorhombic,Pnma,62,20,386.928536484333,4.06307589793546,4.06307608025759,-128.68068676,-6.434034338,Sr,Ru,O,0.496634315499994,,,
mp-1079352,SrRuO3,Orthorhombic,Cmcm,63,10,124.545634708905,6.31142157044436,6.31142188077672,-68.9440229,-6.89440229,Sr,Ru,O,0.0430079389999944,,,
mp-4525,SrRuO3,Tetragonal,I4/mcm,140,10,121.717079213735,6.45809125953598,6.24995684216476,-69.25927512,-6.925927512,Sr,Ru,O,0.0103692919999938,,,
mp-1192792,SrRuO3,Orthorhombic,Pnma,62,20,3116.79451876663,0.50440284123544,0.504402828810313,-61.59037079,-3.0795185395,Sr,Ru,O,4.1602731525,,,
mp-22534,SrRuO3,Tetragonal,P4/mmm,123,5,89.2127754664307,4.40553497689493,4.40553705491925,-128.05115897,-6.4025579485,Sr,Ru,O,0.510739175999995,,,
mp-1187192,SrSbO3,Cubic,Pm-3m,221,5,74.5478704573239,5.73304848776133,5.73304876371795,-30.47906747,-6.095813494,Sr,Sb,O,0.1320984408,,,
mp-1204655,SrSbSe3,Orthorhombic,P2_12_12_1,19,80,2247.19177574683,5.27614721170571,5.27614654547427,-337.73595336,-4.221699417,Sr,Sb,Se,0,,,
mp-1187191,SrScO3,Cubic,Pm-3m,221,5,70.9541390768115,4.22597428837802,4.22597419005904,-36.7440215,-7.3488043,Sr,Sc,O,0.0912574672500073,,,
mp-3395,SrSeO3,Monoclinic,P2_1/m,11,10,153.211821316442,4.65127926656231,4.42548966822733,-59.05544401,-5.905544401,Sr,Se,O,0,,,
mp-555098,SrSeO3,Orthorhombic,Pnma,62,20,306.49128877949,4.65025267582159,4.4486075471539,-118.09728804,-5.904864402,Sr,Se,O,0.000607522500000179,,,
mp-1017439,SrSiO3,Cubic,Pm-3m,221,5,50.6079185208806,5.37142006907096,5.37141998302675,-35.47977658,-7.095955316,Sr,Si,O,0.32427593,,,
mp-561547,SrSiO3,Monoclinic,P2_1/c,14,40,565.429690357827,3.84608581873282,3.84608532376204,-295.39050899,-7.38476272475,Sr,Si,O,0.0360274455000003,,,
mp-18313,SrSiO3,Triclinic,P-1,2,30,425.609814063454,3.83219155500637,3.70454256641813,-222.02599809,-7.400866603,Sr,Si,O,0.0198662516666657,,,
mp-1173151,SrSiO3,Monoclinic,Pc,7,20,368.42290552265,2.95135166811993,2.95135133814427,-132.6824141,-6.634120705,Sr,Si,O,0.9030404455,,,
mp-3978,SrSiO3,Monoclinic,C2/c,15,30,447.855710326581,3.64183887259681,3.53119572916531,-222.62437379,-7.42081245966667,Sr,Si,O,0,,,
mp-12866,SrSnO3,Orthorhombic,Imma,74,10,133.327705794002,6.3350960600877,6.12468812456269,-63.27583335,-6.327583335,Sr,Sn,O,0.00590804550000001,,,
mp-2879,SrSnO3,Orthorhombic,Pnma,62,20,266.217499939632,6.34551690905106,6.12694310766704,-126.66932936,-6.333466468,Sr,Sn,O,0,137.663583551043,137.541829704567,137.602706627805
mp-546973,SrSnO3,Cubic,Pm-3m,221,5,69.6730583662531,6.06148089004535,6.0614797323359,-31.4293822,-6.28587644,Sr,Sn,O,0.0477347734999993,,,
mp-12867,SrSnO3,Tetragonal,I4/mcm,140,10,132.910908214751,6.35496239564765,6.13703974978727,-63.22066212,-6.322066212,Sr,Sn,O,0.0114743645000006,139.968496614501,138.862646548692,139.415571581597
mp-1205419,SrSnS3,Orthorhombic,Pnma,62,20,459.368581538381,4.37430509018121,4.25854963620036,-93.94059401,-4.6970297005,Sr,Sn,S,0.0101398184999981,,,
mp-1186755,SrTaO3,Cubic,Pm-3m,221,5,67.2641151256239,7.81501907842938,7.81501607080296,-42.73254809,-8.546509618,Sr,Ta,O,0.0592408100000093,,,
mp-21898,SrTbO3,Orthorhombic,Pnma,62,20,323.798300194879,6.04204619104774,6.04204550289794,-139.34461888,-6.967230944,Sr,Tb,O,0.121943571875,,,
mp-989586,SrTcN3,Orthorhombic,C222_1,20,10,153.292862646688,4.93180533846463,4.93180622714366,-77.47810462,-7.747810462,Sr,Tc,N,0.019907795,,,
mp-989546,SrTcN3,Orthorhombic,Cmcm,63,10,153.350811930795,4.92994167315292,4.92994156236455,-77.46981053,-7.746981053,Sr,Tc,N,0.0198994100000007,,,
mp-989530,SrTcN3,Monoclinic,C2/m,12,10,149.731621185355,5.04910420634252,4.92928754171553,-77.55938696,-7.755938696,Sr,Tc,N,0.00934258900000096,,,
mp-989627,SrTcN3,Monoclinic,C2/c,15,20,332.208920051495,4.5514163691467,4.41009527800781,-155.32950463,-7.7664752315,Sr,Tc,N,0,,,
mp-1188414,SrTcO3,Orthorhombic,Pnma,62,20,248.557211980371,6.2429433397315,6.13255296568768,-148.44964718,-7.422482359,Sr,Tc,O,0,,,
mp-1079334,SrTcO3,Orthorhombic,Imma,74,10,125.55473589302,6.17949048292869,6.17133286021224,-74.19820875,-7.419820875,Sr,Tc,O,0.00209053749999999,,,
mp-12631,SrTcO3,Cubic,Pm-3m,221,5,62.2117590132608,6.23567238608512,6.14311632115995,-37.11278593,-7.422557186,Sr,Tc,O,0.00211403349999983,176.192182916435,176.192182916435,176.192182916435
mp-5229,SrTiO3,Cubic,Pm-3m,221,5,59.9004503066428,5.08651172375453,4.96210707185598,-40.12485953,-8.024971906,Sr,Ti,O,0.000892013999999719,172.738442605602,172.738442605602,172.738442605602
mp-4651,SrTiO3,Tetragonal,I4/mcm,140,10,119.625077951446,5.09398778183585,4.97206124538364,-80.25735789,-8.025735789,Sr,Ti,O,0,168.832083564605,168.111063325465,168.471573445035
mp-776018,SrTiO3,Hexagonal,P6_3/mmc,194,30,381.021066927438,4.79791333114301,4.79793399891923,-239.5918926,-7.98639642,Sr,Ti,O,0.039102471333333,,,
mp-551830,SrTiO3,Tetragonal,I4/mcm,140,10,119.784603728922,5.08720375170134,4.96612026986282,-80.25171648,-8.025171648,Sr,Ti,O,0.000582247999998842,,,
mp-1080529,SrTiS3,Hexagonal,P6_3/mmc,194,10,220.756225917537,3.48544654112479,3.48528737670547,-59.36495992,-5.936495992,Sr,Ti,S,0.0824371210000043,,,
mp-981367,SrTlO3,Cubic,Pm-3m,221,5,78.3784643099874,7.20332783275338,7.20332832331402,-24.95651357,-4.991302714,Sr,Tl,O,0.240666965499995,,,
mp-1186758,SrTmO3,Cubic,Pm-3m,221,5,80.4155987800097,6.28884423301585,6.28884203420639,-34.57010322,-6.914020644,Sr,Tm,O,0.205895363000007,,,
mp-18717,SrVO3,Cubic,Pm-3m,221,5,59.3596656191151,5.21885807260035,5.21885798900001,-36.2522689,-7.25045378,Sr,V,O,0.0391016768602821,186.208302623135,186.208302623135,186.208302623135
mp-989513,SrWN3,Monoclinic,C2/m,12,10,152.791459269578,6.81380955637379,6.65551906084902,-85.67790765,-8.567790765,Sr,W,N,0.00344275099999969,,,
mp-989625,SrWN3,Triclinic,P1,1,10,144.650572988357,7.19728849872683,7.04760709633009,-85.71134488,-8.571134488,Sr,W,N,0,,,
mp-1186764,SrWO3,Cubic,Pm-3m,221,5,68.9850154794839,7.68968184697268,7.68968093631277,-35.29284278,-7.058568556,Sr,W,O,0.193643792666682,,,
mp-1186756,SrYbO3,Cubic,Pm-3m,221,5,80.3910088934202,6.37557615436751,6.37557454545599,-27.85431003,-5.570862006,Sr,Yb,O,0.386716077999997,,,
mp-1186757,SrZnO3,Cubic,Pm-3m,221,5,63.0478809284468,5.29460330995196,5.29460346458878,-25.09259156,-5.018518312,Sr,Zn,O,0.167972298,,,
mp-5076,SrZrO3,Tetragonal,I4/mcm,140,10,139.291303969354,5.40852622266162,5.23416700474964,-82.53615983,-8.253615983,Sr,Zr,O,0.0125930215000007,,,
mp-3626,SrZrO3,Orthorhombic,Cmcm,63,20,279.027478399484,5.39990308071661,5.23458350082453,-165.16080928,-8.258040464,Sr,Zr,O,0.00819515150000072,,,
mp-4387,SrZrO3,Orthorhombic,Pnma,62,20,278.219966031218,5.4155758902109,5.25225357376446,-165.32405986,-8.266202993,Sr,Zr,O,0,,,
mp-1020622,SrZrO3,Tetragonal,P4/mbm,127,10,139.963879220665,5.38253636796706,5.22363240922108,-82.46506682,-8.246506682,Sr,Zr,O,0.0197499304999997,,,
mp-1068742,SrZrO3,Tetragonal,P4mm,99,5,74.5821580479335,5.05054217942313,5.05054220207103,-41.08924028,-8.217848056,Sr,Zr,O,0.048340725500001,,,
mp-3323,SrZrO3,Cubic,Pm-3m,221,5,73.9607474054056,5.09297631875959,5.09297470840741,-41.05641042,-8.211282084,Sr,Zr,O,0.0549089115000001,152.932068172059,152.932068172059,152.932068172059
mp-1080575,SrZrO3,Orthorhombic,Imma,74,10,139.448065836806,5.40244617654739,5.24436794219945,-82.60398794,-8.260398794,Sr,Zr,O,0.00579217950000022,,,
mp-557203,SrZrO3,Cubic,P2_13,198,40,592.000019540184,5.0902746300051,5.0902753668686,-328.45781292,-8.211445323,Sr,Zr,O,0.0547299592500004,,,
mp-613402,SrZrO3,Cubic,Pm-3m,221,5,85.4965032895637,4.4057981386412,4.40591371172481,-28.67914262,-5.735828524,Sr,Zr,O,2.5172406795,,,
mp-558760,SrZrS3,Orthorhombic,Pnma,62,20,461.535191660178,3.95820741379018,3.9231727528012,-126.10678714,-6.305339357,Sr,Zr,S,0.000940236499999969,,,
mp-5193,SrZrS3,Orthorhombic,Pnma,62,20,474.616282635148,3.84911366127476,3.80234060063719,-126.09589406,-6.304794703,Sr,Zr,S,0,70.3167314255081,68.9864285436053,69.6515799845567
mp-541570,SrZrSe3,Orthorhombic,Pnma,62,20,530.375962797963,5.20631394591452,5.2063142579484,-114.79423091,-5.7397115455,Sr,Zr,Se,0.0271145584999966,,,
mp-9890,TaAgO3,Trigonal,R-3c,167,10,125.042170133073,8.94567439982108,8.94567274514636,-79.04180804,-7.904180804,Ta,Ag,O,0.0220716159999945,,,
mp-1187189,TaAgO3,Cubic,Pm-3m,221,5,63.96976476255,8.74308780413368,8.74308936924996,-39.45305634,-7.890611268,Ta,Ag,O,0.0354765909999948,,,
mp-561242,TaAgS3,Orthorhombic,Cmc2_1,36,10,189.640221787396,6.74251415008997,6.74251444524057,-60.79293176,-6.079293176,Ta,Ag,S,0.000200564000000014,,,
mp-5821,TaAgS3,Orthorhombic,Cmcm,63,10,186.099682317558,6.87079022867884,6.74276601973179,-60.79463752,-6.079463752,Ta,Ag,S,0,,,
mp-972222,TaBeO3,Cubic,Pm-3m,221,5,40.058489189736,9.8640512476562,9.86405039775826,-38.88847499,-7.777694998,Ta,Be,O,1.0010094554,,,
mp-756050,TaCuO3,Monoclinic,C2/m,12,20,281.323012207808,6.90586271914817,6.90586205966636,-165.02536358,-8.251268179,Ta,Cu,O,0.0235563585000005,,,
mp-3102,TaCuS3,Orthorhombic,Pnma,62,20,397.938322577725,5.68658169066591,5.61103391265706,-128.76907257,-6.4384536285,Ta,Cu,S,0,45.6786613765382,40.9150511913471,43.2968562839427
mp-1187220,TaFeO3,Cubic,Pm-3m,221,5,63.0170911984765,7.5044199147459,7.50442047342462,-41.41378737,-8.282757474,Ta,Fe,O,0.538212132500014,,,
mp-1187260,TaInO3,Cubic,Pm-3m,221,5,67.2780588847105,8.48469313765434,8.48469106162219,-39.94819055,-7.98963811,Ta,In,O,0.171127954333352,,,
mp-1247469,TaMoN3,Triclinic,P-1,2,20,263.545791896224,8.03745194533805,8.03745074919672,-200.04301726,-10.002150863,Ta,Mo,N,0.22426913506667,,,
mp-8074,TaSnO3,Cubic,Pm-3m,221,5,67.5480834702887,8.54645273296231,8.54645467360116,-40.4697124,-8.09394248,Ta,Sn,O,0.298947173500009,,,
mp-756933,TaTlO3,Cubic,Fd-3m,227,20,303.753771729374,9.47557437853499,9.20813761836874,-161.71883696,-8.085941848,Ta,Tl,O,0.00216727124997007,,,
mp-861873,TaTlO3,Cubic,Pm-3m,221,5,68.0596381446134,10.5724976478222,10.5724945264435,-39.90594874,-7.981189748,Ta,Tl,O,0.107364854749971,,,
mp-676262,TaTlO3,Monoclinic,C2/c,15,40,605.216109424282,9.51145024715282,9.24667671464485,-323.53189443,-8.08829736075,Ta,Tl,O,0,,,
mp-10795,TaTlS3,Orthorhombic,Pnma,62,20,476.070758657471,6.71827050025531,6.53933959681491,-122.28767819,-6.1143839095,Ta,Tl,S,0.000315144538459045,,,
mp-12027,TaTlSe3,Orthorhombic,Pnma,62,20,551.390418635224,7.49527693732965,7.49527792871608,-111.53058998,-5.576529499,Ta,Tl,Se,0.0244870243333333,,,
mp-1246615,TaWN3,Triclinic,P-1,2,20,321.974693237059,8.39221911018041,8.39221897574634,-206.61415084,-10.330707542,Ta,W,N,0.385175269857143,,,
mp-4434,TbAlO3,Orthorhombic,Pnma,62,20,203.666150992672,7.62833756328628,7.39314087969333,-159.45689683,-7.9728448415,Tb,Al,O,0.00900052475001623,,,
mp-1187310,TbBeO3,Cubic,Pm-3m,221,5,45.9940354476951,7.79600475084725,7.79600201488856,-35.65920179,-7.131840358,Tb,Be,O,0.331650349000001,,,
mp-1217607,TbBO3,Orthorhombic,Ama2,40,10,119.307887633952,6.06090231909663,5.86397445762469,-82.85554659,-8.285554659,Tb,B,O,0,,,
mp-863748,TbBS3,Orthorhombic,Pna2_1,33,20,387.406926967479,4.55943727351832,4.55943720048118,-119.19797725,-5.9598988625,Tb,B,S,0.0371858120299997,,,
mp-755605,TbCO3,Monoclinic,P2_1/m,11,20,209.950662767331,6.92636775421204,6.92636820197188,-161.78689635,-8.0893448175,Tb,C,O,0.025706206500006,,,
mp-19802,TbCoO3,Orthorhombic,Pnma,62,20,205.644151125135,8.58697918275306,8.32920151604702,-151.83328202,-7.591664101,Tb,Co,O,0,,,