material_id,formula_pretty,crystal_system,space_group,number,nsites,volume,density,density,energy,energy_per_atom,A_site,B_site,X_site,energy_above_hull,k_voigt,k_reuss,k_vrh
mp-1198558,CdCO3,Monoclinic,P2_1/c,14,40,563.064656782852,4.06788067921204,4.06788072644067,-231.19923795,-5.77998094875,Cd,C,O,0.5671717885,,,
mp-654812,CdCO3,Trigonal,R-3m,166,5,64.926252591755,4.40977213962329,4.40977180069357,-34.49344887,-3.449344887,Cd,C,O,2.888746321,,,
mp-4385,CdCO3,Trigonal,R-3c,167,10,115.529027204314,4.95650291078665,4.74460522624623,-63.47008257,-6.347008257,Cd,C,O,0,96.2469208421501,85.5701523621249,90.9085366021375
mp-768578,CdCoO3,Monoclinic,C2/c,15,20,236.989385250321,6.14755999260292,6.29685568192485,-109.28606186,-5.464303093,Cd,Co,O,0.0521113921250063,,,
mp-770662,CdCoO3,Trigonal,R-3,148,10,111.680176997713,6.52267261121134,6.52267251777842,-49.71947978,-4.971947978,Cd,Co,O,0.0659679526250061,,,
mp-752746,CdCoO3,Orthorhombic,Pnma,62,20,217.361098706641,6.70270104496817,6.95715187654929,-107.79324843,-5.3896624215,Cd,Co,O,0.105925228625006,,,
mp-776476,CdFeO3,Orthorhombic,Pnma,62,20,224.181821621479,6.40727325380828,6.72231854337414,-118.43545524,-5.921772762,Cd,Fe,O,0.0850199841250054,,,
mp-1290304,CdFeO3,Monoclinic,P2_1/c,14,20,227.152234658741,6.32348694180035,6.32348694180035,-105.70027797,-5.2850138985,Cd,Fe,O,0.0924293896250061,,,
mp-1639105,CdFeO3,Monoclinic,P2_1/m,11,20,225.925981677401,6.35780877878996,6.3578080013214,-105.84811101,-5.2924055505,Cd,Fe,O,0.0998138501250061,,,
mp-2951,CdGeO3,Monoclinic,C2/c,15,20,261.903462987766,5.91038081933195,5.65076699143192,-110.58313199,-5.5291565995,Cd,Ge,O,0.00122254312500747,,,
mp-685935,CdGeO3,Orthorhombic,Cmc2_1,36,10,154.930445101329,4.99562627328381,4.99599225374874,-54.2823215,-5.42823215,Cd,Ge,O,0.0967024906250078,59.5919592441127,58.0195455709011,58.8057524075069
mp-13003,CdGeO3,Orthorhombic,Pnma,62,20,215.979394014668,7.16711522977225,7.16711536331126,-108.24908548,-5.412454274,Cd,Ge,O,0.118074307125008,,,
mp-8275,CdGeO3,Trigonal,R-3,148,10,118.836305589371,6.51294735427203,6.51294812036593,-55.0876149,-5.50876149,Cd,Ge,O,0.0220972476250072,,,
mp-1227040,CdGeO3,Monoclinic,Cc,9,10,137.792202440275,5.6169695263796,5.61696884223051,-48.21797825,-4.821797825,Cd,Ge,O,0.712761187625008,,,
mp-1016903,CdGeO3,Cubic,Pm-3m,221,5,54.1169566725723,7.15094352739187,7.15094290239626,-26.14155705,-5.22831141,Cd,Ge,O,0.302423581625008,,,
mp-7588,CdGeO3,Tetragonal,I4_1/a,88,80,996.489942164786,6.2136069363499,6.21360687722434,-441.08305491,-5.513538186375,Cd,Ge,O,0.016826052750007,,,
mp-505222,CdInBr3,Orthorhombic,Pnma,62,20,615.407625628842,5.03974107571365,4.90597979394868,-50.1332487,-2.506662435,Cd,In,Br,0.00809931100000005,,,
mp-1016828,CdIrO3,Cubic,Pm-3m,221,5,61.7781394733208,9.47826506266958,9.47826491083826,-26.68947031,-5.337894062,Cd,Ir,O,0.463198415000001,,,
mp-2647004,CdIrO3,Trigonal,R-3,148,30,388.281580421615,9.04832385359439,9.04832398453668,-171.10134089,-5.70337802966667,Cd,Ir,O,0.107730322333334,,,
mp-1016882,CdOsO3,Cubic,Pm-3m,221,5,61.2997711434222,9.49840560610068,9.49840263545436,-30.14954059,-6.029908118,Cd,Os,O,0.359573085200004,,,
mp-685257,CdPbO3,Orthorhombic,Ibca,73,40,577.096815839765,8.46207320625471,8.09270198197011,-194.62206719,-4.86555167975,Cd,Pb,O,0,,,
mp-5328,CdPS3,Monoclinic,C2/m,12,10,230.001815523813,3.4593775137096,3.16574390619633,-41.51525729,-4.151525729,Cd,P,S,0,,,
mp-9330,CdPS3,Trigonal,R-3,148,10,228.044096831997,3.48907566470198,3.15234802726097,-41.51441573,-4.151441573,Cd,P,S,0.000248078999998569,,,
mp-1079559,CdPSe3,Trigonal,R-3,148,10,261.691952841095,4.82586098729431,4.66156165189421,-36.68519737,-3.668519737,Cd,P,Se,0,,,
mp-1016875,CdRhO3,Cubic,Pm-3m,221,5,61.7041883515396,7.08613722733052,7.08613845874732,-25.29645134,-5.059290268,Cd,Rh,O,0.424103884999997,,,
mp-1016849,CdRuO3,Cubic,Pm-3m,221,5,60.6161574621136,7.1630476902911,7.16305003724951,-28.38254096,-5.676508192,Cd,Ru,O,0.333932100999996,,,
mp-9186,CdSeO3,Orthorhombic,Pnma,62,20,273.487813437234,5.81352277375989,5.53376999089912,-96.84765576,-4.842382788,Cd,Se,O,0.00997629225000285,,,
mp-559203,CdSeO3,Monoclinic,P2_1/c,14,40,632.485547555402,5.02755402999588,4.77681941837881,-194.08908352,-4.852227088,Cd,Se,O,0,,,
mp-776023,CdSiO3,Orthorhombic,Pbcn,60,40,529.980038801057,4.72474871174597,4.72474807264345,-253.67152265,-6.34178806625,Cd,Si,O,0.0267989325000002,,,
mp-1016879,CdSiO3,Cubic,Pm-3m,221,5,47.4347830135035,6.59859270586192,6.59859260015976,-29.97052705,-5.99410541,Cd,Si,O,0.374506266500001,,,
mp-560560,CdSiO3,Monoclinic,P2_1/c,14,60,766.931992499724,4.89747956154785,4.71685731229664,-382.12450602,-6.368741767,Cd,Si,O,0,,,
mp-1016881,CdSnO3,Cubic,Pm-3m,221,5,66.7948768517519,6.93898031830838,6.93898020715359,-25.20766326,-5.041532652,Cd,Sn,O,0.346307218,,,
mp-1182642,CdSnO3,Monoclinic,P2_1/m,11,10,155.813314249138,5.94927767337061,5.94927769376556,-52.22701199,-5.222701199,Cd,Sn,O,0.0796109719999993,,,
mp-754329,CdSnO3,Trigonal,R-3,148,10,131.040614862999,7.07396460742662,6.80846096142582,-53.87769301,-5.387769301,Cd,Sn,O,0,,,
mp-849371,CdSnO3,Orthorhombic,Pnma,62,20,242.807543702376,7.6354849403899,7.31613118725097,-107.14943823,-5.3574719115,Cd,Sn,O,0.0303832524999992,,,
mp-18634,CdSO3,Trigonal,R-3,148,30,451.782296828179,4.24466736288433,4.24466722675026,-156.02954256,-5.200984752,Cd,S,O,0.099061639083331,,,
mp-556680,CdSO3,Monoclinic,P2_1/c,14,40,624.564559501456,4.09387210401697,4.09387220715654,-208.1471191,-5.2036779775,Cd,S,O,0.0962306727499982,,,
mp-8516,CdSO3,Monoclinic,P2_1/c,14,20,300.59403038203,4.25305756080895,4.25305771636315,-104.07631206,-5.203815603,Cd,S,O,0.0962769297499975,,,
mp-1189706,CdTcO3,Orthorhombic,Pnma,62,20,238.961328888726,7.18272824752602,7.18272831458046,-127.39895508,-6.369947754,Cd,Tc,O,0.115910813500003,,,
mp-19843,CeAlO3,Orthorhombic,Imma,74,20,213.751502690971,6.68392731761728,6.51871095696172,-80.96043816,-8.096043816,Ce,Al,O,0,,,
mp-4096,CeAlO3,Tetragonal,I4/mcm,140,10,106.622070290063,6.69983008269858,6.54264823225442,-80.98384289,-8.098384289,Ce,Al,O,0.00560019599999961,189.333450032636,188.881069390949,189.107259711792
mp-776167,CeAlO3,Orthorhombic,Pnma,62,20,218.923521389216,6.52602104585142,6.52602048755014,-161.96165361,-8.0980826805,Ce,Al,O,0.00307535399999814,,,
mp-3408,CeAlO3,Trigonal,R-3c,167,10,106.892614118525,6.68287289912168,6.53071347745317,-80.94591258,-8.094591258,Ce,Al,O,0.00063845599999901,,,
mp-5323,CeAlO3,Cubic,Pm-3m,221,5,53.2435629339919,6.70832035503118,6.59288815466831,-40.412601,-8.0825202,Ce,Al,O,0.0171150289999993,190.884816567643,190.884816567643,190.884816567643
mp-1078398,CeAsO3,Monoclinic,P2_1/m,11,10,140.19995683688,6.23083247197532,6.23083256618678,-74.05097634,-7.405097634,Ce,As,O,0.151247463500001,,,
mp-1195015,CeAsO3,Monoclinic,P2_1/c,14,40,582.722106956766,5.99642562518111,5.9907223432289,-296.65427681,-7.41635692025,Ce,As,O,0.0782296552500021,,,
mp-1183685,CeBeO3,Cubic,Pm-3m,221,5,46.6733815180265,7.01333496142955,7.01333560876734,-38.34852982,-7.669705964,Ce,Be,O,0.41890689699998,,,
mp-20882,CeBO3,Orthorhombic,Pnma,62,20,240.942988752079,5.48383777659716,5.38962192092264,-169.34617052,-8.467308526,Ce,B,O,0.00212012300000097,,,
mp-20178,CeBO3,Monoclinic,P2_1/m,11,10,124.846508875093,5.29166684607419,5.18772885677321,-84.59221303,-8.459221303,Ce,B,O,0,,,
mp-1189296,CeBS3,Orthorhombic,Pna2_1,33,20,415.117647879931,3.95411505448708,3.96854390597753,-124.07980653,-6.2039903265,Ce,B,S,0.0126908937800012,,,
mp-1213812,CeCdO3,Orthorhombic,Cmcm,63,20,305.728850802077,6.52910359998498,6.52910370687558,-133.03200441,-6.6516002205,Ce,Cd,O,0.177826717500002,,,
mp-780712,CeCrO3,Orthorhombic,Pnma,62,20,245.024877555128,6.50893145906526,6.70298812528001,-175.63788344,-8.781894172,Ce,Cr,O,0.0529605764000003,,,
mp-20530,CeCrO3,Cubic,Pm-3m,221,5,59.6183787402614,6.68774532061852,6.84857412441908,-43.22863841,-8.645727682,Ce,Cr,O,0.1834006764,,,
mp-21871,CeCrS3,Orthorhombic,Pnma,62,20,387.850728994407,4.93741707248467,5.05047658684329,-139.0824715,-6.954123575,Ce,Cr,S,0,,,
mp-20170,CeCrSe3,Orthorhombic,Pnma,62,20,446.041523047896,6.38826749980657,6.44299120521448,-127.75015437,-6.3875077185,Ce,Cr,Se,0,,,
mp-977389,CeCuO3,Cubic,Pm-3m,221,5,56.3093827187403,7.42134922159768,7.42134702114737,-34.43199137,-6.886398274,Ce,Cu,O,0.399238458000004,,,
mp-20775,CeDyS3,Orthorhombic,Pnma,62,20,457.66056720978,5.78805597980442,5.88851999102115,-132.74348561,-6.6371742805,Ce,Dy,S,0,,,
mp-638813,CeErS3,Orthorhombic,Pnma,62,60,1377.62759760041,5.83737218047927,5.83737208697102,-397.26655634,-6.62110927233333,Ce,Er,S,0.0152378209999995,,,
mp-1202288,CeErS3,Monoclinic,P2_1/m,11,40,907.281704039271,5.90902471084113,5.90902427388491,-264.86985102,-6.6217462755,Ce,Er,S,0.0116514615833339,,,
mp-756062,CeFeO3,Orthorhombic,Pnma,62,20,245.924821256367,6.58906701953728,6.64516490582094,-165.19125741,-8.2595628705,Ce,Fe,O,0.0797908600000028,145.019388192447,139.378355081137,142.198871636792
mp-864636,CeFeO3,Cubic,Pm-3m,221,5,60.8644399580957,6.65583684882981,7.22139005469235,-40.6147729,-8.12295458,Ce,Fe,O,0.376129136000003,,,
mp-22540,CeGaO3,Cubic,Pm-3m,221,5,85.9685597555511,4.98029447789035,4.98029446581741,-32.93557182,-6.587114364,Ce,Ga,O,0.875242188900001,,,
mp-33365,CeGaO3,Cubic,Pm-3m,221,5,59.0631107545096,7.24900429309114,7.24900607559786,-36.19987954,-7.239975908,Ce,Ga,O,0.2240228989,,,
mp-1019598,CeGaO3,Orthorhombic,Pnma,62,20,241.533593680341,7.09050425489703,7.09919540601069,-146.56844814,-7.328422407,Ce,Ga,O,0.1186259159,,,
mp-1213810,CeLuO3,Orthorhombic,Pnma,62,20,288.412037002028,8.36179409451996,8.3617944189027,-170.43876235,-8.5219381175,Ce,Lu,O,0.0570241827500002,,,
mp-1092225,CeLuS3,Orthorhombic,Cmcm,63,10,230.359299643599,5.9293736983029,5.92405939906517,-66.10769613,-6.610769613,Ce,Lu,S,0.0105698429999981,,,
mp-1205797,CeLuS3,Orthorhombic,Cmcm,63,10,239.690139037968,5.69855054508465,5.69854929984235,-64.76153869,-6.476153869,Ce,Lu,S,0.145042693999998,,,
mp-1232253,CeMgS3,Trigonal,R-3,148,30,712.439706076808,3.64462883544873,3.64462858035287,-165.49366804,-5.51645560133333,Ce,Mg,S,0.0751984271666633,,,
mp-1232197,CeMgS3,Monoclinic,C2/m,12,10,249.938589526406,3.46295504188483,3.41948174569976,-106.40067652,-5.320033826,Ce,Mg,S,0.260595466499997,,,
mp-1232259,CeMgSe3,Monoclinic,C2/m,12,10,286.565563703456,4.65077505722374,4.65802996833142,-95.9198654,-4.79599327,Ce,Mg,Se,0.256645108,,,
mp-1232360,CeMgSe3,Trigonal,R-3,148,30,833.387040953297,4.79759791227416,4.79759800890365,-149.3408297,-4.97802765666667,Ce,Mg,Se,0.0885298553333325,,,
mp-1183706,CeMnO3,Cubic,Pm-3m,221,5,60.3715519759035,6.68523062333108,6.68522939150794,-40.14025869,-8.028051738,Ce,Mn,O,0.355963915999981,,,
mp-866095,CeNiO3,Cubic,Pm-3m,221,5,54.2427286952141,7.55555023856952,7.63458907438972,-37.03871538,-7.407743076,Ce,Ni,O,0.446890755000002,,,
mp-776207,CeNiO3,Orthorhombic,Pnma,62,20,233.389042111955,7.02404291178661,7.01138782534219,-151.47006629,-7.5735033145,Ce,Ni,O,0.0952567235000039,,,
mp-1214439,CePbO3,Orthorhombic,Cmcm,63,20,361.134205514416,7.27081137879664,7.27081086384653,-141.03568559,-7.0517842795,Ce,Pb,O,0.3766858343125,,,
mp-1183759,CePuO3,Cubic,Pm-3m,221,5,83.1843047035981,8.62593626152614,8.62593493773327,-48.2455431,-9.64910862,Ce,Pu,O,0.548790518625001,,,
mp-1213826,CeRhO3,Orthorhombic,Pnma,62,20,251.990339536673,7.67092233597127,7.67092282853092,-155.326141,-7.76630705,Ce,Rh,O,0.169235691000003,,,
mp-38685,CeSbO3,Cubic,Fd-3m,227,20,331.440565389822,6.20996062115965,6.20995887513396,-141.0302049,-7.051510245,Ce,Sb,O,0.458075008666667,,,
mp-777413,CeScO3,Orthorhombic,Pnma,62,20,263.332884471337,5.87882560903576,5.83224416935147,-177.10485541,-8.8552427705,Ce,Sc,O,0.0134831535000064,155.524702914669,154.496328331067,155.010515622868
mp-20953,CeScS3,Orthorhombic,Pnma,62,20,450.192605298703,4.14982112118926,4.1880029650332,-137.92677391,-6.8963386955,Ce,Sc,S,0,,,
mp-1183701,CeTaO3,Cubic,Pm-3m,221,5,66.6608796020167,9.19342807204894,9.19342887707161,-45.83678314,-9.167356628,Ce,Ta,O,0.348605662718745,,,
mp-754524,CeTiO3,Cubic,Pm-3m,221,5,61.288438271041,6.39363659178604,6.39363864670952,-44.09801327,-8.819602654,Ce,Ti,O,0.0838094562500036,,,
mp-1213788,CeTmO3,Orthorhombic,Pnma,62,20,293.937066919083,8.06829624704162,8.06829683913524,-169.75462656,-8.487731328,Ce,Tm,O,0.0668438008750005,,,
mp-683985,CeTmS3,Orthorhombic,Pnma,62,60,1359.6375821514,5.93916065508627,5.93916055994749,-396.196413,-6.60327355,Ce,Tm,S,0.03147617675,,,
mp-541836,CeTmS3,Monoclinic,P2_1/m,11,40,911.783348536846,5.90425788176435,5.96233103310047,-264.13212529,-6.60330313225,Ce,Tm,S,0,,,
mp-22593,CeVO3,Cubic,Pm-3m,221,5,60.2489661693708,6.58868283029918,6.81075917312532,-43.72372119,-8.744744238,Ce,V,O,0.261823541499997,,,
mp-18769,CeVO3,Orthorhombic,Pnma,62,20,238.207988116856,6.66579373901893,6.42548036566882,-168.80608282,-8.440304141,Ce,V,O,0,,,
mp-556845,CIF3,Orthorhombic,Cmce,64,20,467.975685858363,2.78063026528003,2.7806308682229,-89.72323156,-4.486161578,C,I,F,0.0775907566250007,,,
mp-1206915,CoAgF3,Cubic,Pm-3m,221,5,84.2407411267891,4.41144035463091,4.41144019339497,-16.73997618,-3.347995236,Co,Ag,F,1.056036592,,,
mp-1206910,CoAgF3,Cubic,Pm-3m,221,5,66.1825258716729,5.61512272335005,5.61512067607308,-20.74770441,-4.149540882,Co,Ag,F,0.267764890000003,,,
mp-752700,CoAgO3,Monoclinic,C2/c,15,20,233.994247361832,6.09729722860766,6.22075203026847,-107.78165626,-5.389082813,Co,Ag,O,0.462663771500003,,,
mp-1273356,CoAgO3,Triclinic,P-1,2,20,224.597388488043,6.35240011272609,6.37001122506514,-99.21945117,-4.9609725585,Co,Ag,O,0.0822123195000009,,,
mp-753992,CoAgO3,Trigonal,R-3,148,10,112.719863209842,6.32866486580718,6.24420871675144,-54.89680869,-5.489680869,Co,Ag,O,0.0931191285000015,118.039495431024,103.765809732311,110.902652581668
mp-1183686,CoAuO3,Cubic,Pm-3m,221,5,54.8285182103704,9.20386794963124,9.203867002701,-22.60758634,-4.521517268,Co,Au,O,0.621015075999989,,,
mp-1188346,CoBiO3,Orthorhombic,Pnma,62,20,225.487703701011,9.30576467961751,9.30576396276571,-115.33853448,-5.766926724,Co,Bi,O,0.0822287949999989,,,
mp-545522,CoBiO3,Tetragonal,P4mm,99,5,55.7749055700457,9.40537454677399,7.51416260816321,-30.7772978,-6.15545956,Co,Bi,O,0,-340.136456421252,2.50977325394475,-168.813341583654
mp-757083,CoBO3,Triclinic,P-1,2,10,119.669112051873,3.26760754450652,3.21699518437422,-72.25380062,-7.225380062,Co,B,O,0.176260072347219,,,
mp-1183397,CoBO3,Cubic,Pm-3m,221,5,37.7552523815995,5.17850721050499,5.17850870206207,-29.37580923,-5.875161846,Co,B,O,1.22659012134722,,,
mp-765572,CoBO3,Monoclinic,C2/c,15,20,231.932895331143,3.37193818778315,3.33724644900224,-144.193314,-7.2096657,Co,B,O,0.199309056847218,,,
mp-21434,CoCO3,Trigonal,R-3c,167,10,92.1643112116597,4.28599731966015,4.14565250616636,-73.01691674,-7.301691674,Co,C,O,0,120.436555431309,111.312448445368,115.874501938339
mp-1181984,CoCO3,Monoclinic,C2/c,15,10,239.144846296547,1.65178550547422,1.65178564871357,-67.15661447,-6.715661447,Co,C,O,0.421501477000003,,,
mp-22136,CoGeO3,Monoclinic,C2/c,15,20,219.538699172204,5.43294312603113,5.25773524118142,-130.564856,-6.5282428,Co,Ge,O,0.0013515145000067,,,
mp-550220,CoGeO3,Monoclinic,C2,5,20,227.071102896814,5.25272151035196,5.25272129748738,-130.4402755,-6.522013775,Co,Ge,O,0,,,
mp-1246547,CoMoN3,Triclinic,P-1,2,20,370.461235363929,3.53018321042864,3.5301828655642,-164.83608947,-8.2418044735,Co,Mo,N,0.383714547733334,,,
mp-1183772,CoMoO3,Cubic,Pm-3m,221,5,63.216023109056,5.32896345459733,5.32896276725679,-31.02367662,-6.204735324,Co,Mo,O,0.673827806500006,,,
mp-1272234,CoNiO3,Triclinic,P1,1,10,96.0291067879752,5.7279808527711,5.72803993103851,-53.94589068,-5.394589068,Co,Ni,O,0.0236176609999994,,,
mp-1279343,CoNiO3,Triclinic,P-1,2,10,94.7561740490661,5.80492923559163,5.80492884794006,-54.40083672,-5.440083672,Co,Ni,O,0.000366710999998965,,,
mp-1178424,CoNiO3,Trigonal,R-3,148,10,87.3595976365771,6.2964219143785,5.83068250952264,-53.66686974,-5.366686974,Co,Ni,O,0,,,
mp-770488,CoPbO3,Orthorhombic,Pbam,55,40,443.801989002844,9.40288626673485,9.40288762512085,-221.7390905,-5.5434772625,Co,Pb,O,0.15222651975001,,,
mp-1178420,CoPbO3,Trigonal,R-3,148,20,254.272656322142,8.20579705247108,8.23233533873678,-56.46584944,-5.646584944,Co,Pb,O,0.0493846040000099,,,
mp-755569,CoPbO3,Orthorhombic,Pnma,62,20,218.68003110633,9.54138246284448,9.33601552582387,-120.58876277,-6.0294381385,Co,Pb,O,0.13891524800001,,,
mp-676437,CoPS3,Monoclinic,C2/m,12,10,189.788559806012,3.25656688985976,3.25656625342478,-51.92905624,-5.192905624,Co,P,S,0.103177752357142,,,
mp-1183715,CoRhO3,Cubic,Pm-3m,221,5,59.0379080712449,5.90201064273914,5.90201054819545,-27.69484476,-5.538968952,Co,Rh,O,0.796887344499997,,,
mp-1183681,CoSbO3,Cubic,Pm-3m,221,5,53.3594740933359,7.11684292331096,7.11684082440344,-27.55866065,-5.51173213,Co,Sb,O,0.580026283874994,,,
mp-22616,CoSeO3,Orthorhombic,Pnma,62,20,234.63049713343,5.2624007077261,5.33651863376359,-115.81866116,-5.790933058,Co,Se,O,0.0292571311250001,,,
mp-562826,CoSeO3,Monoclinic,C2/c,15,80,1147.99568100762,4.30217539872745,4.40589517570324,-465.63180789,-5.820397598625,Co,Se,O,0,,,
mp-699575,CoSiO3,Orthorhombic,Pbca,61,80,879.146801313968,4.08033476936395,4.09139952756805,-572.77363853,-7.159670481625,Co,Si,O,0.0200949855000001,,,
mp-761574,CoSnO3,Trigonal,R-3,148,20,236.218875173658,6.34473178596197,6.34831749796685,-61.70328119,-6.170328119,Co,Sn,O,0.0348254175000005,155.196964324921,149.474808765459,152.33588654519
mp-752613,CoSnO3,Orthorhombic,Pnma,62,20,228.500176192893,6.55905579912241,6.59309381695082,-126.54134174,-6.327067087,Co,Sn,O,0.0762659565000003,,,
mp-1183692,CoSnO3,Cubic,Pm-3m,221,5,52.4267112101641,7.14685973601527,7.14686151198536,-27.60604502,-5.521209004,Co,Sn,O,0.6837517235,,,
mp-1247505,CoWN3,Triclinic,P-1,2,20,282.543993801653,6.69503373106877,6.69503282433995,-176.4692284,-8.82346142,Co,W,N,0.316095460500001,,,
mp-559851,CrBiO3,Orthorhombic,Pnma,62,20,231.942668887704,8.84812721008082,8.57715941025641,-144.67464026,-7.233732013,Cr,Bi,O,0.0112026899999993,,,
mp-1181841,CrBiO3,Monoclinic,Cc,9,10,455.045358121935,2.25500403765698,2.25500410700509,-52.40188507,-5.240188507,Cr,Bi,O,1.946944696,,,
mp-546027,CrBiO3,Trigonal,R3c,161,10,118.648865012559,8.64845289310953,8.39475082493202,-72.33423934,-7.233423934,Cr,Bi,O,0.0147050409999991,,,
mp-23456,CrBiO3,Monoclinic,C2/c,15,20,248.441695027579,8.2605226129062,8.44119895489437,-144.42403394,-7.221201697,Cr,Bi,O,0.0226827879999991,,,
mp-19299,CrBO3,Trigonal,R-3c,167,10,86.6382581473075,4.24746603569733,4.05687850352819,-80.21235481,-8.021235481,Cr,B,O,0,,,
mp-1206044,CrCoBr3,Hexagonal,P6_3/mmc,194,10,258.140291769816,4.51114054856583,4.51114093102963,-41.88296332,-4.188296332,Cr,Co,Br,0.76309523,,,
mp-1205501,CrCoCl3,Hexagonal,P6_3/mmc,194,10,213.029918067453,3.38746506439681,3.3874653160955,-45.66538571,-4.566538571,Cr,Co,Cl,0.780623853999999,,,
mp-1183696,CrCuO3,Cubic,Pm-3m,221,5,50.6027879907626,5.36660266946274,5.36660406342694,-29.05068486,-5.810136972,Cr,Cu,O,1.548437433875,,,
mp-1245144,CrFeO3,Triclinic,P1,1,80,1042.57933022789,3.97133897837831,3.97133855217635,-554.72691234,-6.93408640425,Cr,Fe,O,0.407753416749999,,,
mp-1245204,CrFeO3,Triclinic,P1,1,80,1027.24135322294,4.03063595443764,4.03063550777459,-556.93614385,-6.961701798125,Cr,Fe,O,0.381572794249999,,,
mp-1245147,CrFeO3,Triclinic,P1,1,80,1022.71647181186,4.04846900025995,4.04846893540795,-552.68718846,-6.90858985575,Cr,Fe,O,0.458440044249999,,,
mp-1245260,CrFeO3,Triclinic,P1,1,80,1025.63001342778,4.03696837843865,4.03696831377088,-556.7610213,-6.95951276625,Cr,Fe,O,0.407517133749998,,,
mp-1245072,CrFeO3,Triclinic,P1,1,80,1037.61926807904,3.99032290509677,3.99032294179178,-551.69131063,-6.896141382875,Cr,Fe,O,0.447376036625,,,
mp-1244905,CrFeO3,Triclinic,P1,1,80,1005.42397360045,4.1180994693796,4.1180994034122,-554.94232623,-6.936779077875,Cr,Fe,O,0.430250822124998,,,
mp-1078458,CrFeO3,Trigonal,R-3,148,10,100.516947947041,5.14892763950491,4.94149924843857,-73.0152078,-7.30152078,Cr,Fe,O,0.00998867799999914,,,