material_id,formula_pretty,crystal_system,space_group,number,nsites,volume,density,density,energy,energy_per_atom,A_site,B_site,X_site,energy_above_hull,k_voigt,k_reuss,k_vrh
mp-1016886,MgVO3,Cubic,Pm-3m,221,5,53.9767668903042,3.79149495036092,3.79149437796907,-32.88797621,-6.577595242,Mg,V,O,0.510588147999999,,,
mp-27186,MgVO3,Orthorhombic,Cmcm,63,10,139.19166731989,2.94058750846148,2.85743743616066,-76.56291051,-7.656291051,Mg,V,O,0,,,
mp-1370061,MgVO3,Orthorhombic,Pnma,62,20,199.177806748019,4.10994864222607,4.10994864222607,-140.7095648,-7.03547824,Mg,V,O,0.0928165374999992,,,
mp-1079330,MgVO3,Orthorhombic,Cmc2_1,36,10,145.497817784871,2.81313688709738,2.81313642340986,-71.22955569,-7.122955569,Mg,V,O,0.184720741999999,,,
mp-1147661,MgVS3,Monoclinic,Cm,8,20,432.875647740509,2.63064286357971,2.63064294744953,-109.70793084,-5.485396542,Mg,V,S,0.220976500500001,,,
mp-1326513,MgWO3,Orthorhombic,Pnma,62,20,227.325191049296,7.48418225504454,7.48418225504454,-137.24288149,-6.8621440745,Mg,W,O,0.0817830849999961,,,
mp-1413707,MgWO3,Monoclinic,Cm,8,5,68.5090268647989,6.20846346399473,6.20846346399473,-32.85867807,-6.571735614,Mg,W,O,0.397613723999996,,,
mp-1185612,MgZnO3,Cubic,Pm-3m,221,5,55.7559708393013,4.10138115443311,4.10138131418459,-21.81196833,-4.362393666,Mg,Zn,O,0.703546248249999,,,
mp-1017000,MgZrO3,Cubic,Pm-3m,221,5,70.6153278465928,3.84538757140124,3.84538764935298,-37.14060207,-7.428120414,Mg,Zr,O,0.667561955000002,,,
mp-1206344,MnAgF3,Cubic,Pm-3m,221,5,85.7608701201623,4.25589084797541,4.25589141674984,-21.36344851,-4.272689702,Mn,Ag,F,0.931364924000004,,,
mp-754229,MnAgO3,Trigonal,R-3,148,10,117.638050329735,5.95128898097606,5.98077496085001,-63.97665708,-6.397665708,Mn,Ag,O,0.0710377984999955,,,
mp-1368992,MnAlO3,Orthorhombic,Pnma,62,20,200.730307083738,4.29897324919427,4.29897324919427,-139.72645261,-6.9863226305,Mn,Al,O,0.161166981943182,,,
mp-774250,MnAlO3,Triclinic,P-1,2,10,97.4961370007763,4.42547903435737,4.41430453978552,-74.6521861,-7.46521861,Mn,Al,O,0.0596548579431833,,,
mp-1258775,MnAlO3,Orthorhombic,Cmc2_1,36,30,305.460873909491,4.23753561009861,4.2375358775951,-220.26495676,-7.34216522533333,Mn,Al,O,0.19009806060985,,,
mp-1260288,MnAlO3,Hexagonal,P6_3cm,185,30,309.960865819669,4.17601534071199,4.19739130254122,-219.48324657,-7.316108219,Mn,Al,O,0.283037619943183,,,
mp-1399724,MnAlO3,Cubic,Pm-3m,221,5,53.123452978688,4.06098517730827,4.06098517730827,-31.17564661,-6.235129322,Mn,Al,O,1.30291297794318,,,
mp-1405591,MnAlO3,Triclinic,P-1,2,10,97.7429392879655,4.41430463797085,4.41430463797085,-25.73065026,-2.573065026,Mn,Al,O,4.96497727394318,,,
mp-1444809,MnAlO3,Hexagonal,P6_3/mmc,194,10,103.624303476665,4.16376367079691,4.16376367079691,-66.2529192,-6.62529192,Mn,Al,O,0.284369633943183,,,
mp-1105271,MnBiO3,Orthorhombic,Pnma,62,20,249.339782867728,8.3091397383637,8.31013246649592,-132.74438914,-6.637219457,Mn,Bi,O,0.0256754215999928,,,
mp-1202955,MnBiO3,Orthorhombic,Pmn2_1,31,80,1024.83627105806,8.08636133083872,8.08636081603832,-530.31462201,-6.628932775125,Mn,Bi,O,0.0348086697249936,,,
mp-1106239,MnBiO3,Monoclinic,Cc,9,20,257.393824583484,8.04914065647772,8.04914062966159,-132.66051078,-6.633025539,Mn,Bi,O,0.0299001160999932,,,
mp-23477,MnBiO3,Monoclinic,C2/c,15,20,258.590465788143,8.0118928277835,8.3101118302588,-140.24165795,-7.0120828975,Mn,Bi,O,0.028161421099993,107.471850128824,101.94040035078,104.706125239802
mp-556711,MnBiO3,Monoclinic,P2_1/c,14,40,554.782029759297,7.46887601633421,7.79093650697711,-277.14515528,-6.928628882,Mn,Bi,O,0.0978672715999931,,,
mp-1194603,MnBiO3,Monoclinic,P2_1/c,14,40,510.994121754684,8.10889601260749,8.10889577890733,-265.44930124,-6.636232531,Mn,Bi,O,0.0262128320999926,,,
mp-761288,MnBO3,Trigonal,R-3c,167,10,95.0344835636498,3.97501489896806,3.97918747349374,-77.73226058,-7.773226058,Mn,B,O,0.0419155774687496,,,
mp-1185996,MnBO3,Cubic,Pm-3m,221,5,39.2078069016029,4.81745241488883,4.81745046588573,-33.67295914,-6.734591828,Mn,B,O,1.07848962446875,,,
mp-1278986,MnBO3,Triclinic,P-1,2,20,190.433163850792,3.96741282287604,3.96741282287604,-155.63612536,-7.781806268,Mn,B,O,0.0298327669687488,,,
mp-25296,MnBO3,Hexagonal,P-6,174,15,187.896514066855,3.01573041381837,3.18375767032111,-119.22231018,-7.948154012,Mn,B,O,0.223279765135416,,,
mp-1289597,MnBO3,Monoclinic,C2/c,15,20,180.72689745193,4.18048993710768,3.97360817516022,-77.9736565,-7.79736565,Mn,B,O,0.0178630129687498,,,
mp-1016854,MnCdO3,Cubic,Pm-3m,221,5,55.4267086210712,6.45162814288485,6.45162809030032,-28.2059992,-5.64119984,Mn,Cd,O,0.279906975333334,,,
mp-546798,MnClO3,Orthorhombic,Cmc2_1,36,10,204.677035159579,2.24549615486282,2.29243003785783,-60.97471041,-6.097471041,Mn,Cl,O,0.356274601562497,,,
mp-1180142,MnCO3,Monoclinic,C2/c,15,10,187.945519474861,2.03116193769495,2.03116178328254,-68.60341145,-6.860341145,Mn,C,O,1.04445846,,,
mp-695863,MnCO3,Monoclinic,C2/c,15,10,116.319619010168,3.28188648455143,3.28188644126242,-72.43377797,-7.243377797,Mn,C,O,1.339096991,,,
mp-18814,MnCO3,Trigonal,R-3c,167,10,102.172889154501,3.73629236362672,3.55273386909163,-79.09712063,-7.909712063,Mn,C,O,0,104.092400383084,94.6517926620494,99.3720965225665
mp-1180143,MnCO3,Monoclinic,P2_1/c,14,20,220.247024764022,3.46654204229688,3.46654182869306,-152.69077805,-7.6345389025,Mn,C,O,0.2725020945,,,
mp-1078473,MnCO3,Triclinic,P-1,2,20,223.197627030769,3.42071544931808,3.49747200204996,-78.52534032,-7.852534032,Mn,C,O,0.0302993669999996,,,
mp-690525,MnCO3,Monoclinic,Cc,9,10,112.075150084175,3.40617688426852,3.40617670509839,-78.30234502,-7.830234502,Mn,C,O,0.081420198,84.5038613629808,74.795696869246,79.6497791161134
mp-1271783,MnCO3,Monoclinic,P2/c,13,20,222.955074459161,3.42443684175995,3.41986794382827,-157.68728167,-7.8843640835,Mn,C,O,0.0299065605000006,,,
mp-20641,MnCoO3,Trigonal,R-3,148,10,96.1999134216102,5.58816571134843,5.46639358917444,-75.07078453,-7.507078453,Mn,Co,O,0,170.333819775784,169.325438384105,169.829629079944
mp-1181286,MnCoO3,Monoclinic,C2/m,12,10,105.469889774285,5.09700976048995,5.09700922025719,-66.79835184,-6.679835184,Mn,Co,O,0.0899413790001118,,,
mp-1176440,MnCuO3,Trigonal,R-3,148,10,100.477142293789,5.5027494892211,5.53507058706109,-62.89601596,-6.289601596,Mn,Cu,O,0.0355585284166677,,,
mp-674482,MnFeO3,Orthorhombic,Ibca,73,40,435.428515817174,4.84419280388318,5.13976241385626,-314.77579585,-7.86939489625,Mn,Fe,O,0.0115608874375006,164.085663265031,164.039465977442,164.062564621236
mp-759744,MnFeO3,Triclinic,P1,1,40,438.417117954139,4.81117090676129,4.97550706949032,-315.40421752,-7.885105438,Mn,Fe,O,0.0665825984375008,,,
mp-1176435,MnGaO3,Hexagonal,P6_3/mmc,194,10,109.681794864631,5.22798559024338,5.2278778929769,-67.19810742,-6.719810742,Mn,Ga,O,0.0807459091874989,,,
mp-1106201,MnGeO3,Monoclinic,C2/c,15,20,236.287350027606,4.9355365652096,4.68011775715885,-141.97571842,-7.098785921,Mn,Ge,O,0,,,
mp-643577,MnGeO3,Orthorhombic,Pbca,61,80,970.597853673113,4.80612996018636,4.59447197878585,-567.90774355,-7.098846794375,Mn,Ge,O,0.00273475424999958,,,
mp-20798,MnGeO3,Trigonal,R-3,148,10,104.250517887673,5.59328087566087,5.38072551636333,-72.62967564,-7.262967564,Mn,Ge,O,0.0167531990000001,,,
mp-28912,MnInBr3,Orthorhombic,Pnma,62,20,582.988561752307,4.66518713988567,4.55681885560396,-82.3401386,-4.11700693,Mn,In,Br,0.00409645099999967,,,
mp-1422819,MnInF3,Cubic,Pm-3m,221,5,79.8580096050756,4.71498499055919,4.71498499055919,-27.12249064,-5.424498128,Mn,In,F,0.0312227146666677,,,
mp-1099572,MnInF3,Trigonal,R3m,160,5,79.9998764939565,4.70662372450422,4.70662362151601,-27.12231494,-5.424462988,Mn,In,F,0.0311785166666665,,,
mp-998241,MnInF3,Triclinic,P1,1,5,80.1243285546411,4.69931322303796,4.69931401168826,-27.12103684,-5.424207368,Mn,In,F,0.0312297806666662,,,
mp-882825,MnInO3,Hexagonal,P6_3cm,185,30,349.561182309067,6.20645739355783,6.00245015625891,-208.8374127,-6.96124709,Mn,In,O,0.0145566753541662,,,
mp-1193780,MnInO3,Trigonal,P-3c1,165,30,364.421067056309,5.95337860669757,5.91905244457847,-197.59474586,-6.58649152866667,Mn,In,O,0.0166393080208334,,,
mp-550807,MnInO3,Hexagonal,P6_3/mmc,194,10,122.767672834387,5.89062938788893,5.98335921180419,-69.6273852,-6.96273852,Mn,In,O,0.0220858326875,,,
mp-19331,MnNiO3,Trigonal,R-3,148,10,94.5143295599752,5.67939996173549,5.38167692642303,-62.56367094,-6.256367094,Mn,Ni,O,0,175.566902388713,174.760563189129,175.163732788921
mp-1180705,MnNiO3,Monoclinic,C2/m,12,10,113.167510635047,4.7432754920045,4.74327427212923,-60.15965259,-6.015965259,Mn,Ni,O,0.253462698,,,
mp-510672,MnPbO3,Monoclinic,C2/c,15,30,375.871228341996,8.22079444169452,8.43719418623344,-208.73441365,-6.95781378833333,Mn,Pb,O,0.0719064465512904,,,
mp-37214,MnPbO3,Cubic,Pm-3m,221,5,59.9892121821479,8.58476602805571,8.58476707475401,-31.90763664,-6.381527328,Mn,Pb,O,0.113874719884623,,,
mp-1188613,MnPbO3,Monoclinic,P2/c,13,20,317.293800211793,6.4923216331031,6.49232138724183,-128.89884517,-6.4449422585,Mn,Pb,O,0.060138137884624,,,
mp-1106337,MnPbO3,Monoclinic,P2/c,13,20,308.609254869293,6.67502147347132,6.67502103861664,-128.55818501,-6.4279092505,Mn,Pb,O,0.0769999478846222,,,
mp-1210723,MnPO3,Monoclinic,P2_1/c,14,40,587.502601211783,3.02790554558954,3.02790524261251,-291.30128845,-7.28253221125,Mn,P,O,0.30709131496428,,,
mp-1232516,MnPS3,Triclinic,P-1,2,20,445.11476705021,2.71746066140444,2.70439640916926,-115.92663281,-5.7963316405,Mn,P,S,0.00666331699998946,,,
mp-8613,MnPS3,Monoclinic,C2/m,12,10,216.04569066552,2.799365878447,2.61746008507723,-57.81534556,-5.781534556,Mn,P,S,0,,,
mp-8695,MnPSe3,Trigonal,R-3,148,10,244.920952127151,4.37699103524339,4.01494433125019,-52.68306223,-5.268306223,Mn,P,Se,0,,,
mp-1199914,MnSeO3,Monoclinic,P2_1/c,14,40,590.79741054001,4.09000873059703,3.85863686497271,-255.93599235,-6.39839980875,Mn,Se,O,0.000855243000011718,,,
mp-1202364,MnSeO3,Monoclinic,P2_1/c,14,40,571.639534868168,4.22708091328921,3.98130424057668,-256.03641953,-6.40091048825,Mn,Se,O,0,,,
mp-22224,MnSeO3,Orthorhombic,Pnma,62,20,258.334977274677,4.67680875546624,4.74597402946635,-131.03539709,-6.5517698545,Mn,Se,O,0.0202544245000125,,,
mp-17766,MnSiO3,Monoclinic,P2_1/c,14,40,461.888195848457,3.76830112745268,3.60325214529045,-324.00972973,-8.10024324325,Mn,Si,O,0.0161973025000091,,,
mp-532143,MnSiO3,Tetragonal,I4_1/a,88,80,834.858365893139,4.16965051865004,4.19668911305797,-641.87350193,-8.023418774125,Mn,Si,O,0.0823351248750086,,,
mp-1180212,MnSiO3,Triclinic,P-1,2,50,681.880456577165,3.19068722454259,3.19068689937413,-378.18170142,-7.5636340284,Mn,Si,O,0.369881986600008,,,
mp-647680,MnSiO3,Triclinic,P-1,2,50,626.628432325728,3.47202129560425,3.47202128670234,-381.30327132,-7.6260654264,Mn,Si,O,0.307521472800008,,,
mp-1180172,MnSiO3,Triclinic,P-1,2,50,609.863447485873,3.56746624254183,3.56746640716963,-381.97873034,-7.6395746068,Mn,Si,O,0.293809884800009,,,
mp-1181218,MnSiO3,Triclinic,P-1,2,50,638.266798330552,3.40871132127928,3.40871085381885,-391.00130014,-7.8200260028,Mn,Si,O,0.115164987800007,,,
mp-1289249,MnSiO3,Monoclinic,C2/c,15,20,230.971425468214,3.76785527829796,3.60349002032594,-158.42691594,-7.921345797,Mn,Si,O,0.0127983590000085,,,
mp-1172857,MnSiO3,Monoclinic,P2_1/c,14,40,456.763279480046,3.81058173317731,3.66605088252722,-316.78474377,-7.91961859425,Mn,Si,O,0.0162319615000097,,,
mp-5945,MnSiO3,Triclinic,P-1,2,70,845.729359603786,3.60154715153726,3.61420178235176,-567.24297615,-8.10347108785714,Mn,Si,O,0.0070941201428667,,,
mp-560199,MnSiO3,Triclinic,P-1,2,50,605.316865642428,3.59426175769442,3.62754297763566,-405.08424117,-8.1016848234,Mn,Si,O,0.00718814620000785,,,
mp-1181816,MnSnO3,Triclinic,P-1,2,10,177.685845372158,4.1427300865392,4.14272967974011,-67.85453366,-6.785453366,Mn,Sn,O,0.154089911999994,,,
mp-20569,MnSnO3,Trigonal,R-3,148,10,120.555034577799,6.10596231134878,5.9132162574143,-71.19468456,-7.119468456,Mn,Sn,O,0,143.126813145512,136.395523574075,139.761168359793
mp-691106,MnSnO3,Trigonal,R3c,161,10,123.0427044524,5.98251233871537,5.97638027056208,-69.14337895,-6.914337895,Mn,Sn,O,0.0223195969999939,,,
mp-560522,MnSO3,Trigonal,R-3,148,30,403.67386953388,3.3320191116803,3.38445316943798,-207.48601831,-6.91620061033333,Mn,S,O,0.0695582598095541,,,
mp-27818,MnSO3,Monoclinic,P2_1/c,14,40,566.884074322214,3.16360753835138,3.22445739705351,-276.80793076,-6.920198269,Mn,S,O,0.0693872306428878,,,
mp-570290,MnTlCl3,Cubic,Pm-3m,221,5,130.267788651642,4.66137104993847,4.66136981665529,-22.29047616,-4.458095232,Mn,Tl,Cl,0.0293077779999997,,,
mp-570300,MnTlCl3,Orthorhombic,Pnma,62,20,505.018601325055,4.80953768567764,4.61865580640659,-89.74334261,-4.4871671305,Mn,Tl,Cl,0,,,
mp-30528,MnTlCl3,Orthorhombic,Pnma,62,20,499.516382047455,4.86251518936232,4.69396253033244,-89.25806542,-4.462903271,Mn,Tl,Cl,0.0243922364999998,,,
mp-998762,MnTlF3,Cubic,Pm-3m,221,5,75.9622537232531,6.91469737376715,6.532573459925,-27.1987305,-5.4397461,Mn,Tl,F,0,,,
mp-23443,MnTlI3,Orthorhombic,Pnma,62,20,727.350993559104,5.8447859373022,5.84478550914756,-74.93270591,-3.7466352955,Mn,Tl,I,0.0170265940000003,,,
mp-770870,MnTlO3,Orthorhombic,Pnma,62,20,240.131307411122,8.50061769794206,8.50061705125833,-120.6061924,-6.03030962,Mn,Tl,O,0.053737198187501,,,
mp-768374,MnTlO3,Hexagonal,P6_3cm,185,30,391.17953872104,7.8273436090862,7.91149341447671,-193.04118887,-6.43470629566667,Mn,Tl,O,0.0307751781875023,,,
mp-1311921,MnTlO3,Triclinic,P-1,2,20,245.092403129161,8.32855043872259,8.32854352491347,-120.28064826,-6.014032413,Mn,Tl,O,0.0640513796875011,,,
mp-768432,MnTlO3,Trigonal,R-3,148,10,135.570963565146,7.52839836764918,7.68497499021342,-65.02805798,-6.502805798,Mn,Tl,O,0.121886347187501,,,
mp-753819,MnTlO3,Monoclinic,P2_1/c,14,20,242.416092772194,8.42049889619821,8.62555991161899,-128.27358731,-6.4136793655,Mn,Tl,O,0.061953488187501,,,
mp-1106224,MnVO3,Orthorhombic,Pnma,62,20,209.748852477263,4.87287542286815,4.88188030023558,-156.20224105,-7.8101120525,Mn,V,O,0.0340148151071453,,,
mp-754318,MnZnO3,Trigonal,R-3,148,10,97.48952847676,5.73484886770147,5.5022941241861,-66.3283228,-6.63283228,Mn,Zn,O,0.00579423399999879,161.655076261786,158.225588415386,159.940332338586
mp-772528,MnZnO3,Orthorhombic,Pnma,62,20,195.097888591396,5.73135584433334,5.73135597877537,-120.34612821,-6.0173064105,Mn,Zn,O,0.0983824519999992,,,
mp-1016932,MnZnO3,Cubic,Pm-3m,221,5,52.261984793685,5.34889474830329,5.34889470553961,-27.75132865,-5.55026573,Mn,Zn,O,0.56117291,,,
mp-1186106,MoPbO3,Cubic,Pm-3m,221,5,69.302245597712,8.41356140550306,8.41645008784086,-32.6828942,-6.53657884,Mo,Pb,O,0.117392296812503,,,
mp-1247498,MoRuN3,Triclinic,P-1,2,20,301.905182461433,5.25885400054714,5.25885395951001,-174.12612503,-8.7063062515,Mo,Ru,N,0.324794982733334,,,
mp-1247512,MoWN3,Triclinic,P-1,2,20,297.324349189978,7.18893880224189,7.18893868009173,-194.16158073,-9.7080790365,Mo,W,N,0.384543346733333,,,
mp-1186101,NaAgO3,Cubic,Pm-3m,221,5,69.5491383976443,4.27032833525257,4.27032966868477,-18.97480518,-3.794961036,Na,Ag,O,0.395354844249998,,,
mp-1186097,NaAlO3,Cubic,Pm-3m,221,5,52.9193721585277,3.07415202665252,3.07415106852077,-28.49761688,-5.699523376,Na,Al,O,0.216725335749999,,,
mp-17868,NaAsO3,Triclinic,P-1,2,30,419.540758307348,3.4650536594977,3.19454969150934,-169.19204928,-5.639734976,Na,As,O,0,,,
mp-976133,NaAsO3,Cubic,Pm-3m,221,5,51.4469709083829,4.70948115510413,4.70948195337671,-26.67211014,-5.334422028,Na,As,O,0.304430911666667,,,
mp-23729,NaBeH3,Cubic,Pm-3m,221,5,37.356573813701,1.5569324381377,1.55693242716968,-15.46638362,-3.093276724,Na,Be,H,0.126078056833336,,,
mp-976185,NaBeO3,Cubic,Pm-3m,221,5,46.2438861146427,2.8726689665531,2.8726688725165,-24.47359732,-4.894719464,Na,Be,O,0.459261113,,,
mp-23054,NaBiO3,Trigonal,R-3,148,10,143.405697275374,6.4836812404882,6.11454151951867,-51.81883488,-5.181883488,Na,Bi,O,0,64.8381341797719,51.7212598543394,58.2796970170557
mp-23339,NaBrO3,Cubic,P2_13,198,20,292.775320481373,3.42326681652921,3.15952392848864,-82.91326477,-4.1456632385,Na,Br,O,0,27.148426877635,27.148426877635,27.148426877635
mp-1180213,NaBrO3,Triclinic,P1,1,20,437.189795585208,2.29247811688059,2.29247801916328,-77.07362685,-3.8536813425,Na,Br,O,0.700010647,,,
mp-608595,NaBrO3,Monoclinic,P2_1,4,20,431.454315609815,2.32295286671549,2.35216094486154,-79.12018785,-3.9560093925,Na,Br,O,0.4984734565,,,
mp-1413617,NaBrO3,Orthorhombic,P2_12_12_1,19,20,431.456867175602,2.32293912914979,2.32293912914979,-77.15599915,-3.8577999575,Na,Br,O,0.6091715845,,,
mp-1189541,NaBrO3,Cubic,P2_13,198,20,470.76134164194,2.12899393099465,2.12899349458304,-80.25985057,-4.0129925285,Na,Br,O,0.132193781,,,
mp-1078750,NaCaH3,Triclinic,P-1,2,10,146.431541473277,1.49896210705602,1.49896206706979,-30.43585268,-3.043585268,Na,Ca,H,0.064464225,,,
mp-1078933,NaCaH3,Trigonal,R3c,161,10,151.744705388292,1.44647769676436,1.44647813121318,-30.37717361,-3.037717361,Na,Ca,H,0.0703869569999998,,,
mp-1221112,NaCaN3,Orthorhombic,Fddd,70,20,398.384079863856,1.75210327104264,1.75210338087334,-84.09813844,-4.204906922,Na,Ca,N,1.79069586562644,,,
mp-1186118,NaCaO3,Cubic,Pm-3m,221,5,91.5288536435845,2.01498624332615,2.01498619763484,-22.72829659,-4.545659318,Na,Ca,O,0.546416481999998,,,
mp-1180887,NaCdF3,Monoclinic,Cc,9,10,214.399047060119,2.98024682075573,2.98024679583806,-38.70952339,-3.870952339,Na,Cd,F,0.0889130989999991,,,
mp-4360,NaCdF3,Trigonal,R3c,161,10,141.761410016039,4.50730617240392,4.22604179613974,-39.92142317,-3.992142317,Na,Cd,F,0,,,
mp-976293,NaCdO3,Cubic,Pm-3m,221,5,77.1257750075502,3.94863005569539,3.94863001024555,-18.1201864,-3.62403728,Na,Cd,O,0.474396421999999,,,
mp-630949,NaClO3,Monoclinic,P2_1/c,14,20,358.59688417081,1.97156635295269,1.9715664359979,-80.86919942,-4.043459971,Na,Cl,O,0.57284035025,,,
mp-23330,NaClO3,Cubic,P2_13,198,20,299.365410405325,2.36165410742545,2.36165393191136,-85.35544633,-4.2677723165,Na,Cl,O,0.0348473592500005,24.6328979166465,24.6328979166465,24.6328979166465
mp-1180278,NaClO3,Triclinic,P1,1,20,523.663583239065,1.35009875372999,1.35009891717239,-84.06860892,-4.203430446,Na,Cl,O,0.41308131025,,,
mp-2720358,NaClO3,Cubic,P2_13,198,20,297.468223778651,2.376716215682,2.376716215682,-85.57229488,-4.278614744,Na,Cl,O,0.0298856377500005,,,
mp-555726,NaClO3,Cubic,P2_13,198,20,379.502323231464,1.86295974444834,1.90149035903005,-84.63078439,-4.2315392195,Na,Cl,O,0.0684522427500003,,,
mp-1180505,NaClO3,Trigonal,R3,146,20,451.319306447457,1.56651297873771,1.56744300928276,-78.32821775,-3.9164108875,Na,Cl,O,0.70192376825,,,
mp-655586,NaClO3,Triclinic,P1,1,20,388.610690384052,1.81929516762943,1.81929530091673,-81.6124572,-4.08062286,Na,Cl,O,0.51050255525,,,
mp-1120755,NaCO3,Trigonal,R-3c,167,10,123.795533487828,2.22661559641495,2.08802761832567,-64.54737105,-6.454737105,Na,C,O,0,,,
mp-727242,NaCO3,Monoclinic,P2_1/c,14,20,247.229372292561,2.22987311802353,2.05610050029936,-128.84237143,-6.4421185715,Na,C,O,0.0148808390000026,,,
mp-1078336,NaCoF3,Orthorhombic,Cmcm,63,10,112.067793206728,4.11677696486707,3.85105197644849,-47.86176328,-4.786176328,Na,Co,F,0.0182715709999997,,,
mp-21404,NaCoF3,Orthorhombic,Pnma,62,20,230.601674054309,4.00134224063169,3.78845779333781,-98.81597309,-4.9407986545,Na,Co,F,0,,,
mp-1186126,NaCoO3,Cubic,Pm-3m,221,5,53.3003927912548,4.04760936209261,4.0476106201543,-24.89977071,-4.979954142,Na,Co,O,0.222207793250001,,,
mp-1076642,NaCrO3,Cubic,Pm-3m,221,5,52.6529950229359,3.87859895756968,3.87859886439404,-30.29589833,-6.059179666,Na,Cr,O,0.29644677833333,,,
mp-505085,NaCuF3,Monoclinic,P2_1/c,14,20,229.349240589019,4.15678372573588,3.98315383643592,-85.00187093,-4.2500935465,Na,Cu,F,0.0012037888999954,,,
mp-505066,NaFeF3,Orthorhombic,Pnma,62,20,237.731598282946,3.79505270607307,3.64269736207689,-106.56130418,-5.328065209,Na,Fe,F,0,,,
mp-1078217,NaFeF3,Orthorhombic,Cmcm,63,10,115.104388474914,3.91906840971315,3.63636864076889,-50.91106995,-5.091106995,Na,Fe,F,0.00969247350000035,,,
mp-1186134,NaFeO3,Cubic,Pm-3m,221,5,56.2030568811492,3.74732464939924,3.74732323933016,-26.78413906,-5.356827812,Na,Fe,O,0.145332376249999,,,