material_id,formula_pretty,crystal_system,space_group,number,nsites,volume,density,density,energy,energy_per_atom,A_site,B_site,X_site,energy_above_hull,k_voigt,k_reuss,k_vrh
mp-981376,ScSnO3,Cubic,Pm-3m,221,5,69.2963743304424,5.07207671929802,5.07207841623923,-34.47925689,-6.895851378,Sc,Sn,O,0.672475899499998,,,
mp-1101375,ScTiO3,Trigonal,R-3,148,10,113.479072949306,4.12127014788913,4.12127046071951,-89.68274054,-8.968274054,Sc,Ti,O,0.0692020078750009,,,
mp-754092,ScTiO3,Orthorhombic,Pna2_1,33,20,214.545728109284,4.35970382517135,4.35970327786191,-178.80481429,-8.9402407145,Sc,Ti,O,0.096638373874999,,,
mp-752429,ScTlO3,Orthorhombic,Pnma,62,20,256.387499472698,7.70303372205269,7.70305175160208,-135.05684125,-6.7528420625,Sc,Tl,O,0.0787690023749992,,,
mp-7276,ScUS3,Orthorhombic,Cmcm,63,10,211.810962232152,5.94532880698897,6.07241657614729,-76.58988836,-7.658988836,Sc,U,S,0.0280006710000009,,,
mp-756546,ScVO3,Orthorhombic,Pnma,62,20,215.775435919055,4.42949929347754,4.59550945260136,-178.07402082,-8.903701041,Sc,V,O,0.0493919895000037,187.83038587373,173.657558716681,180.743972295206
mp-972978,ScVO3,Cubic,Pm-3m,221,5,54.2849970390302,4.40166341109898,4.40166171354137,-38.70218677,-7.740437354,Sc,V,O,0.725788689000005,,,
mp-1246967,ScWN3,Triclinic,P-1,2,20,321.096532966715,5.60206070905699,5.60206061931817,-193.36097103,-9.6680485515,Sc,W,N,0.135583997500001,,,
mp-1186999,SiAgO3,Cubic,Pm-3m,221,5,47.4897223232349,6.4321141792789,6.43211258425182,-29.31695835,-5.86339167,Si,Ag,O,0.481597106000002,,,
mp-972827,SiBiO3,Cubic,Pm-3m,221,5,54.8142314045645,8.63571489384692,8.58305410977062,-31.17677669,-6.235355338,Si,Bi,O,0.717313176833339,,,
mp-972839,SiBO3,Cubic,Pm-3m,221,5,42.9726820892643,3.35776211805348,3.3577610717789,-29.87385159,-5.974770318,Si,B,O,1.90558408897918,,,
mp-972822,SiBO3,Cubic,Pm-3m,221,5,37.134644879556,3.8856449145667,3.88564611016815,-29.83252446,-5.966504892,Si,B,O,1.91629945097918,,,
mp-1209042,SiCCl3,Monoclinic,C2/m,12,30,860.705052385682,1.69531651126691,1.69531671422336,-145.60660163,-4.85355338766667,Si,C,Cl,0.1427950083,,,
mp-769171,SiGeO3,Orthorhombic,Pbca,61,80,1025.82086549254,3.85192420683659,3.85192446849473,-563.40168054,-7.04252100675,Si,Ge,O,0.10603612629167,,,
mp-1186997,SiMoO3,Cubic,Pm-3m,221,5,48.4476125035057,5.89610219100907,5.89610093205874,-34.22107611,-6.844215222,Si,Mo,O,0.891918091500007,,,
mp-978489,SiPbO3,Cubic,Pm-3m,221,5,52.6575467153965,8.93326180430379,8.93326294821793,-32.77560492,-6.555120984,Si,Pb,O,0.423951939166668,,,
mp-21723,SiPbO3,Monoclinic,P2/c,13,60,894.266761051951,6.31225944563985,6.00378548028017,-418.76108396,-6.97935139933333,Si,Pb,O,0,,,
mp-978490,SiPdO3,Cubic,Pm-3m,221,5,46.5890029743768,6.5048510227987,6.50485314215425,-31.20167132,-6.240334264,Si,Pd,O,0.712795403000004,,,
mp-36053,SiPN3,Monoclinic,Cc,9,20,228.867853175559,2.93350467702868,2.93350521300856,-156.28577297,-7.8142886485,Si,P,N,0.0233273513333341,,,
mp-1219220,SiPN3,Monoclinic,P2_1,4,10,113.895070690756,2.94738355944717,2.94738364434235,-78.21626912,-7.821626912,Si,P,N,0.0161487693333342,,,
mp-776110,SiSnO3,Monoclinic,P2/c,13,60,911.65819511284,4.25768188794737,4.25768182162878,-421.75419144,-7.029236524,Si,Sn,O,0.02590829516667,,,
mp-978493,SiSnO3,Cubic,Pm-3m,221,5,51.1564934283122,6.32300079814584,6.32300151443959,-32.84381563,-6.568763126,Si,Sn,O,0.486258473000003,,,
mp-1075933,SmAgO3,Cubic,Pm-3m,221,5,67.3663313296203,7.54829438367672,7.54829565408826,-28.72141448,-5.744282896,Sm,Ag,O,0.423643064166668,,,
mp-7405,SmAlO3,Orthorhombic,Pnma,62,20,208.417800483608,7.18144876943294,6.961196487332,-158.94204441,-7.9471022205,Sm,Al,O,0,182.449433141081,178.613746671824,180.531589906452
mp-1187025,SmAlO3,Orthorhombic,Pnma,62,20,214.386423017018,6.98151373462729,6.98151349280071,-158.83691005,-7.9418455025,Sm,Al,O,0.00518444550000119,,,
mp-978503,SmBeO3,Cubic,Pm-3m,221,5,47.6998018726698,7.21903670556047,7.21903455955593,-35.67237873,-7.134475746,Sm,Be,O,0.284335066249999,,,
mp-1219113,SmBiS3,Orthorhombic,Pnma,62,20,485.93335400892,6.22665080862403,6.19704499138071,-107.92286495,-5.3961432475,Sm,Bi,S,0.0107282652500009,,,
mp-8627,SmBO3,Triclinic,P-1,2,20,235.394131743336,5.90216290537246,5.68319171500169,-166.47095689,-8.3235478445,Sm,B,O,0,,,
mp-760477,SmBO3,Orthorhombic,Ama2,40,10,128.49753616135,5.40607452104504,5.40607403399457,-82.62738777,-8.262738777,Sm,B,O,0.0608205275000007,,,
mp-1173486,SmBO3,Orthorhombic,Pnma,62,20,258.812987764772,5.36810198173131,5.36810225979747,-165.5109424,-8.27554712,Sm,B,O,0.0365078440000008,,,
mp-972448,SmBS3,Orthorhombic,Pna2_1,33,20,397.902104166193,4.29619540022413,4.27479460867128,-119.88353151,-5.9941765755,Sm,B,S,0.0154988095300004,,,
mp-20016,SmCoO3,Orthorhombic,Pnma,62,20,211.849021837118,8.06692255064556,7.82640342161272,-151.03312741,-7.5516563705,Sm,Co,O,0,,,
mp-22549,SmCoO3,Cubic,Pm-3m,221,5,53.0290957822475,8.05675462866442,7.87777537395294,-37.09950339,-7.419900678,Sm,Co,O,0.130553111,,,
mp-19257,SmCrO3,Cubic,Pm-3m,221,5,58.3015294627337,7.1305692916174,7.12119931362149,-39.91812151,-7.983624302,Sm,Cr,O,0.197281755500001,,,
mp-1105788,SmCrO3,Orthorhombic,Pnma,62,20,227.252773739576,7.31736891568508,7.04437927802556,-163.64195885,-8.1820979425,Sm,Cr,O,0,,,
mp-15932,SmCrS3,Orthorhombic,Pnma,62,20,378.049130336756,5.2454109812108,5.24122588589514,-134.48773479,-6.7243867395,Sm,Cr,S,0.0010327324999988,,,
mp-770767,SmCuO3,Orthorhombic,Pnma,62,20,235.781252146013,7.37806168808191,7.12204141679586,-134.51063597,-6.7255317985,Sm,Cu,O,0,,,
mp-1076706,SmCuO3,Cubic,Pm-3m,221,5,55.2665038742157,7.86918160765948,7.86918377475123,-32.94451549,-6.588903098,Sm,Cu,O,0.1243862085,,,
mp-772548,SmCuO3,Trigonal,R-3c,167,10,113.176090990407,7.68540690884052,7.68540677430857,-66.94781437,-6.694781437,Sm,Cu,O,0.0334752764999999,,,
mp-756452,SmDyO3,Orthorhombic,Pnma,62,20,298.024262825223,8.04255509833265,8.04255426820408,-165.64686274,-8.282343137,Sm,Dy,O,0.074952790624998,,,
mp-754203,SmErO3,Orthorhombic,Pnma,62,20,290.47141479306,8.3605010765474,8.36050108776358,-166.27172129,-8.3135860645,Sm,Er,O,0.0595117541249994,,,
mp-1105437,SmFeO3,Orthorhombic,Pnma,62,20,323.958642373669,5.21195349334557,5.21195316364547,-146.02133189,-7.3010665945,Sm,Fe,O,0.3348317365,,,
mp-20243,SmFeO3,Orthorhombic,Pnma,62,20,234.873555291377,7.18879303259272,7.23697248274719,-159.43163999,-7.9715819995,Sm,Fe,O,0,170.427542897363,170.233238019646,170.330390458505
mp-1099588,SmFeO3,Cubic,Pm-3m,221,5,59.7370822210103,7.06620291384553,7.06620225836977,-36.61853098,-7.323706196,Sm,Fe,O,0.222370185499999,,,
mp-978504,SmGaO3,Cubic,Pm-3m,221,5,57.6080302285442,7.72738286407224,7.72738538135121,-35.09364091,-7.018728182,Sm,Ga,O,0.210192991083311,,,
mp-1219055,SmGdS3,Orthorhombic,Pnma,62,20,451.624131020887,5.93886758240916,5.91380508204828,-166.35736446,-8.317868223,Sm,Gd,S,0,,,
mp-978926,SmGeO3,Cubic,Pm-3m,221,5,61.4747915944313,7.32012401192172,7.32012239234576,-34.41427001,-6.882854002,Sm,Ge,O,0.508299215468751,,,
mp-755717,SmHoO3,Orthorhombic,Pnma,62,20,293.359527970417,8.22546701081588,8.22546622999608,-165.95257475,-8.2976287375,Sm,Ho,O,0.066932636999999,,,
mp-752437,SmInO3,Orthorhombic,Pnma,62,20,275.765993900791,7.54322616031364,7.54322734410124,-138.98793814,-6.949396907,Sm,In,O,0.0303930866249988,,,
mp-1101371,SmLuO3,Orthorhombic,Pnma,62,20,281.8274389726,8.79859081722029,8.79859114158487,-167.15356894,-8.357678447,Sm,Lu,O,0.0395454042499992,,,
mp-1208832,SmLuSe3,Monoclinic,P2_1/m,11,20,521.804297504237,7.1564507343553,7.04531506095916,-116.22628418,-5.811314209,Sm,Lu,Se,0.00248177474999967,,,
mp-1232277,SmMgS3,Trigonal,R-3,148,30,722.667157516501,3.73428021656573,3.73428024327172,-151.67773416,-5.055924472,Sm,Mg,S,0.305190856666669,,,
mp-1232244,SmMgS3,Monoclinic,C2/m,12,10,271.2697787768,3.31606132911215,3.32757062297706,-99.5404396,-4.97702198,Sm,Mg,S,0.373260237000002,,,
mp-1232201,SmMgSe3,Trigonal,R-3,148,30,824.461706396638,4.97332898444014,4.97332937509881,-137.29267205,-4.57642240166667,Sm,Mg,Se,0.264392664233334,,,
mp-1232154,SmMgSe3,Monoclinic,C2/m,12,20,560.581337602588,4.87627043088166,4.87627047803015,-90.51081422,-4.525540711,Sm,Mg,Se,0.323557296400002,,,
mp-1237966,SmMgSe3,Monoclinic,C2/m,12,10,297.064553863146,4.6009296045379,4.60092936634973,-89.21400632,-4.460700316,Sm,Mg,Se,0.365658597900001,,,
mp-22203,SmMnO3,Orthorhombic,Pnma,62,20,231.506751962807,7.26731823896278,7.09745772948165,-167.28833844,-8.364416922,Sm,Mn,O,0,,,
mp-1075973,SmMnO3,Cubic,Pm-3m,221,5,59.0946469510558,7.11753656120404,7.11753809177361,-38.86556199,-7.773112398,Sm,Mn,O,0.19960384,,,
mp-22495,SmNiO3,Orthorhombic,Pnma,62,20,216.980203040351,7.86881416739494,7.69047937923294,-144.33512499,-7.2167562495,Sm,Ni,O,0,,,
mp-1099668,SmNiO3,Cubic,Pm-3m,221,5,54.6134402222849,7.81573587371014,7.81573537770831,-32.2196404,-6.44392808,Sm,Ni,O,0.121692334999998,,,
mp-981250,SmPuO3,Cubic,Pm-3m,221,5,82.5192836183423,8.90159294072665,8.9015949654507,-46.42863423,-9.285726846,Sm,Pu,O,0.733932247124999,,,
mp-3317,SmRhO3,Orthorhombic,Pnma,62,20,237.735501802167,8.4170877198603,8.16693673874786,-149.97757385,-7.4988786925,Sm,Rh,O,0,,,
mp-1207179,SmSbO3,Cubic,Pm-3m,221,5,77.8010545966839,6.83241094590932,6.83241213283637,-31.71567114,-6.343134228,Sm,Sb,O,0.860086120999994,,,
mp-31118,SmScO3,Orthorhombic,Pnma,62,20,254.957941138612,6.33881159577499,6.22403992098279,-173.75958417,-8.6879792085,Sm,Sc,O,0,163.043234949909,160.498643912017,161.770939430963
mp-1188840,SmScS3,Orthorhombic,Pnma,62,20,438.451586885975,4.41613416116642,4.38887383696072,-133.75414171,-6.6877070855,Sm,Sc,S,0,,,
mp-978506,SmSiO3,Cubic,Pm-3m,221,5,53.517592677572,7.02607481806691,7.0260727478606,-37.11171967,-7.422343934,Sm,Si,O,0.660038604624994,,,
mp-22416,SmTiO3,Orthorhombic,Pnma,62,20,243.428326118172,6.71847143348329,6.71847139594713,-173.40361037,-8.6701805185,Sm,Ti,O,0.0486076472499946,,,
mp-1099583,SmTiO3,Cubic,Pm-3m,221,5,59.9504192890882,6.82007846867249,6.82007971863255,-42.61068569,-8.522137138,Sm,Ti,O,0.196237995249994,,,
mp-754787,SmTlO3,Orthorhombic,Pnma,62,20,299.20161433487,8.94070034986631,8.94069893814185,-127.64217546,-6.382108773,Sm,Tl,O,0.0731567521249987,,,
mp-776439,SmTmO3,Orthorhombic,Pnma,62,20,288.630018053711,8.45239036165902,8.45239062226984,-166.41791452,-8.320895726,Sm,Tm,O,0.0516059673749982,,,
mp-20702,SmVO3,Cubic,Pm-3m,221,5,59.5057310357224,6.95684069309467,7.18937162567975,-42.25487593,-8.450975186,Sm,V,O,0.299045315499999,,,
mp-1188225,SmVO3,Orthorhombic,Pnma,62,20,233.714794560051,7.08507806569847,6.84462509309776,-164.42959973,-8.2214799865,Sm,V,O,0,,,
mp-755685,SmYO3,Orthorhombic,Pna2_1,33,20,300.616744766014,6.34712717451611,6.34712734368313,-172.92252487,-8.6461262435,Sm,Y,O,0.0638265499999999,,,
mp-972442,SnBO3,Cubic,Pm-3m,221,5,42.6124445215426,6.91764037434076,6.91763859989156,-29.66197571,-5.932395142,Sn,B,O,1.12849799606248,,,
mp-772724,SnBO3,Monoclinic,Cc,9,20,292.2274095202,4.03490647445516,4.03490609624482,-139.33431265,-6.9667156325,Sn,B,O,0.0905246665624846,,,
mp-1068985,SnCCl3,Trigonal,R3m,160,5,119.775256947665,3.28682328704854,3.28682273532405,-16.12734463,-3.225468926,Sn,C,Cl,1.29055422975,,,
mp-1068389,SnCCl3,Cubic,Pm-3m,221,5,146.28587686092,2.69116959337159,2.69117019380498,-14.35229444,-2.870458888,Sn,C,Cl,1.65131107375,,,
mp-729742,SnCCl3,Monoclinic,Cm,8,5,166.098147835719,2.37016552488702,2.43031061274041,-16.76349833,-3.352699666,Sn,C,Cl,1.16468950175,,,
mp-769144,SnGeO3,Monoclinic,P2/c,13,60,970.796606972883,4.91283591762482,4.76565930935215,-371.30088794,-6.18834813233333,Sn,Ge,O,0,,,
mp-1101394,SnGeO3,Trigonal,R-3,148,10,157.206958649878,5.05635424835817,5.0563548558885,-60.84735051,-6.084735051,Sn,Ge,O,0.103020028,,,
mp-1187065,SnGeO3,Cubic,Pm-3m,221,5,57.7019631838612,6.88792919148985,6.88793068538683,-29.57375468,-5.914750936,Sn,Ge,O,0.273269262,,,
mp-5045,SnGeS3,Monoclinic,P2_1/c,14,20,531.992430789319,3.59012405644237,3.414484883889,-91.80543641,-4.5902718205,Sn,Ge,S,0,,,
mp-1101720,SnPbO3,Orthorhombic,Pbam,55,40,564.94120645484,8.7922660457832,8.79226531561412,-236.07092686,-5.9017731715,Sn,Pb,O,0.0762580784999996,,,
mp-978952,SnPbO3,Cubic,Pm-3m,221,5,70.325887633413,8.82874279040158,8.82874290564484,-29.30797955,-5.86159591,Sn,Pb,O,0.1167542735,,,
mp-504543,SnPbO3,Cubic,Fd-3m,227,20,311.157365036671,7.98167413905067,7.98167408333011,-116.44876182,-5.822438091,Sn,Pb,O,0.155305781999999,116.261642870792,116.261642870792,116.261642870792
mp-1188095,SnPbS3,Orthorhombic,Pnma,62,20,504.413495807926,5.55831157201309,5.71017141530944,-89.0638955,-4.453194775,Sn,Pb,S,0.00708124899999696,,,
mp-726037,SnPO3,Monoclinic,Cc,9,10,195.397343013461,3.35990874390265,3.55697331657195,-63.64223267,-6.364223267,Sn,P,O,0.310660673366673,,,
mp-4252,SnPS3,Monoclinic,P2_1/c,14,20,484.469985069327,3.37103475989182,3.37103441455285,-94.11688456,-4.705844228,Sn,P,S,0.00703618199999934,17.2845277057761,15.276816933751,16.2806723197636
mp-13923,SnPS3,Monoclinic,Pc,7,20,491.679709275476,3.32160373711487,3.24456359822103,-94.253016,-4.7126508,Sn,P,S,0,,,
mp-1080140,SnPS3,Monoclinic,C2/m,12,10,270.743235676306,3.01607749444486,3.01607722593815,-46.66805604,-4.666805604,Sn,P,S,0.0456553670000002,,,
mp-1079752,SnPS3,Trigonal,R-3,148,10,269.087124979657,3.03464010014683,3.0346394931138,-46.66931057,-4.666931057,Sn,P,S,0.0456265369999995,,,
mp-673705,SnPSe3,Monoclinic,P2_1/c,14,20,604.309610107529,4.24884342592961,4.2385320639134,-80.88390068,-4.044195034,Sn,P,Se,0.178147437499999,,,
mp-570370,SnPSe3,Monoclinic,Pc,7,20,550.522637627649,4.66396245792183,4.69990347135495,-84.45359659,-4.2226798295,Sn,P,Se,0,,,
mp-5706,SnPSe3,Monoclinic,P2_1/c,14,20,544.146555938278,4.71861281875447,4.71861292971994,-84.39061661,-4.2195308305,Sn,P,Se,0.00321580049999959,,,
mp-979294,SrAgO3,Cubic,Pm-3m,221,5,69.4390994807596,5.82263713684571,5.82263650958786,-24.25305852,-4.850611704,Sr,Ag,O,0.112504430000001,112.046030848349,112.046030832656,112.046030840503
mp-1068011,SrAlH3,Cubic,Pm-3m,221,5,96.4160413648708,2.02581956708813,2.02581922980043,-13.98625801,-2.797251602,Sr,Al,H,0.699012910285716,,,
mp-978862,SrAlO3,Cubic,Pm-3m,221,5,56.4357911329028,4.78425504000479,4.78425668460844,-33.36909135,-6.67381827,Sr,Al,O,0.0508495222499947,,,
mp-978851,SrAsO3,Cubic,Pm-3m,221,5,62.8017489227172,5.56687622512511,5.56687680819698,-30.49940406,-6.099880812,Sr,As,O,0.245648954499998,,,
mp-1187146,SrAuO3,Cubic,Pm-3m,221,5,70.7442566555607,7.80657014419596,7.8065693396284,-24.85800717,-4.971601434,Sr,Au,O,0.274543589999999,,,
mp-1187143,SrBeO3,Cubic,Pm-3m,221,5,52.0571061965092,4.61347963948842,4.61347819409923,-29.14798646,-5.829597292,Sr,Be,O,0.376971984999999,,,
mp-29164,SrBiO3,Monoclinic,P2_1/c,14,20,311.195871764323,7.35510319402982,7.13609272681293,-118.65245731,-5.9326228655,Sr,Bi,O,0,,,
mp-28476,SrBiSe3,Orthorhombic,P2_12_12_1,19,80,2327.15878557196,6.09062038023448,6.09062028951659,-337.93903133,-4.224237891625,Sr,Bi,Se,0,,,
mp-1189840,SrBO3,Orthorhombic,Pnma,62,20,280.491274872214,3.46750760360385,3.46750690182947,-141.05845287,-7.0529226435,Sr,B,O,0.062341577874995,,,
mp-978842,SrCaO3,Cubic,Pm-3m,221,5,83.8177203717181,3.48077235528837,3.480772800607,-27.36913392,-5.473826784,Sr,Ca,O,0.467312725999997,,,
mp-22428,SrCeO3,Orthorhombic,Pnma,62,20,318.880192457858,5.74344122873932,5.63253905035804,-153.90392669,-7.6951963345,Sr,Ce,O,0.00851447799999683,,,
mp-1218370,SrCO3,Trigonal,R32,155,5,74.539057766395,3.28879332735146,3.28879323054517,-37.02755253,-7.405510506,Sr,C,O,0.0317049775000005,,,
mp-38035,SrCO3,Trigonal,R-3c,167,10,148.781434301745,3.2953514255281,3.29549224774942,-74.13670656,-7.413670656,Sr,C,O,0.0232246075000004,64.8284643856377,60.3544263936219,62.5914453896298
mp-3822,SrCO3,Orthorhombic,Pnma,62,20,258.447569119548,3.79409342706243,3.63595578334996,-148.74897925,-7.4374489625,Sr,C,O,0,61.8218730441865,57.7085685043554,59.7652207742709
mp-33746,SrCO3,Monoclinic,C2/m,12,10,140.845794211623,3.48102060386486,3.4810197990398,-74.01408814,-7.401408814,Sr,C,O,0.0361576455000003,,,
mp-562466,SrCoO3,Triclinic,P-1,2,20,259.797426850686,4.9740322030934,4.97403205821672,-117.74389502,-5.887194751,Sr,Co,O,0.0733170399274217,,,
mp-1273854,SrCoO3,Tetragonal,P4/mmm,123,20,232.183406855081,5.56560343798674,5.56560391552512,-119.17279567,-5.9586397835,Sr,Co,O,0.0352577109274206,,,
mp-1283849,SrCoO3,Tetragonal,P4/mbm,127,10,112.932538368344,5.72129514711384,5.42500927084734,-59.65083958,-5.965083958,Sr,Co,O,0.0182290649274206,,,
mp-505766,SrCoO3,Cubic,Pm-3m,221,10,117.280637135773,5.50918207384957,5.68979710664649,-32.11368951,-6.422737902,Sr,Co,O,0.0817968879274202,134.21553449161,134.21553449161,134.21553449161
mp-1272815,SrCoO3,Orthorhombic,Amm2,38,20,235.467347341727,5.4879828648204,5.4879828648204,-118.66785424,-5.933392712,Sr,Co,O,0.0395083094274211,,,
mp-550781,SrCoO3,Monoclinic,P2_1/m,11,20,262.597029713394,4.92100298638756,4.93753040562392,-127.55835173,-6.3779175865,Sr,Co,O,0.0874531174274216,,,
mp-752441,SrCrO3,Hexagonal,P6_3/mmc,194,30,355.208570148742,5.26238780453449,5.26050621913271,-228.40969208,-7.61365640266667,Sr,Cr,O,0.0857306939374976,,,
mp-781082,SrCrO3,Orthorhombic,Ama2,40,70,860.711534334024,5.0674030385966,5.06740319516227,-489.24738936,-6.98924841942857,Sr,Cr,O,0.0652886416517839,,,
mp-20029,SrCrO3,Cubic,Pm-3m,221,5,59.0094385778298,5.27950921261367,5.43255938806433,-38.00327474,-7.600654948,Sr,Cr,O,0.0725450819374967,,,
mp-755321,SrCrO3,Hexagonal,P6_3/mmc,194,20,240.96779287623,5.1714940139379,5.16780805943415,-152.18501534,-7.609250767,Sr,Cr,O,0.0964323934374969,,,
mp-761337,SrCrO3,Orthorhombic,Ama2,40,30,364.730946713303,5.12499765775619,5.12499729211012,-209.90220176,-6.99674005866667,Sr,Cr,O,0.0576359589374968,,,
mp-1372100,SrCrO3,Orthorhombic,Cmcm,63,30,364.731173820669,5.12499446657101,5.12499446657101,-207.03364362,-6.901121454,Sr,Cr,O,0.169051027937498,,,
mp-1325463,SrCrO3,Orthorhombic,Cmcm,63,70,862.233489288198,5.05845840903256,5.05845840903256,-481.01143789,-6.87159196985714,Sr,Cr,O,0.198580512080354,,,
mp-769855,SrCrO3,Orthorhombic,Ama2,40,20,248.015349623337,5.02454182897877,5.03468298965531,-139.69246968,-6.984623484,Sr,Cr,O,0.0702200274374976,,,
mp-1192969,SrCuO3,Orthorhombic,Pmma,51,30,353.535813985894,5.61278243988031,5.61278222984442,-162.30594168,-5.410198056,Sr,Cu,O,0.045769814791667,,,
mp-29049,SrCuO3,Orthorhombic,Pmmm,47,15,178.396077546004,5.56155616172981,5.56155572273705,-162.42625992,-5.414208664,Sr,Cu,O,0.0427257767916673,,,
mp-1076711,SrCuO3,Cubic,Pm-3m,221,5,56.5523989441537,5.84802662562071,5.64225105857569,-27.22724376,-5.445448752,Sr,Cu,O,0.00826930212500177,,,
mp-1187145,SrDyO3,Cubic,Pm-3m,221,5,83.6217141622725,5.91995658691983,5.91995531430728,-34.25640258,-6.851280516,Sr,Dy,O,0.252805650000001,,,
mp-1187147,SrErO3,Cubic,Pm-3m,221,5,81.4542043668625,6.17450537871842,6.17450327141058,-34.48101935,-6.89620387,Sr,Er,O,0.222959852249999,,,
mp-1100775,SrEuO3,Cubic,Pm-3m,221,5,84.2368786056226,5.66903102137144,5.66902996063974,-38.14076146,-7.628152292,Sr,Eu,O,0.183555596874999,,,
mp-510624,SrFeO3,Cubic,Pm-3m,221,5,56.1297021248051,5.66424034656951,5.31128285613664,-31.78010261,-6.356020522,Sr,Fe,O,0,131.382746941999,131.382746941999,131.382746941999
mp-555731,SrGeO3,Hexagonal,P-62m,189,15,248.667874130049,4.17208147513584,4.17208215211709,-96.73937507,-6.44929167133333,Sr,Ge,O,0.112676463333334,,,
mp-17464,SrGeO3,Monoclinic,C2/c,15,30,480.601863768107,4.31734751498995,4.17756544155109,-196.85927438,-6.56197581266667,Sr,Ge,O,0,,,
mp-1016999,SrGeO3,Cubic,Pm-3m,221,5,57.3699846347762,6.02790604252957,6.02790594596918,-32.05648735,-6.41129747,Sr,Ge,O,0.150044169333334,,,
mp-554869,SrGeO3,Triclinic,P-1,2,60,901.243529548933,4.60458287734341,4.42724012025676,-393.60214424,-6.56003573733333,Sr,Ge,O,0.00188473883333362,,,
mp-1207079,SrPdH3,Cubic,Pm-3m,221,5,56.1024061635181,5.83276536784657,5.74067471754319,-19.61466184,-3.922932368,Sr,Pd,H,0,,,