material_id,formula_pretty,crystal_system,space_group,number,nsites,volume,density,density,energy,energy_per_atom,A_site,B_site,X_site,energy_above_hull,k_voigt,k_reuss,k_vrh
mp-1183532,CaMgO3,Cubic,Pm-3m,221,5,61.4044446553358,3.03908575346381,3.03908609764893,-27.55273438,-5.510546876,Ca,Mg,O,0.310670068,,,
mp-1188497,CaMnO3,Hexagonal,P6_3/mmc,194,20,231.993366202339,4.09461261397758,4.09463434250137,-137.17150257,-6.8585751285,Ca,Mn,O,0.119748543833338,,,
mp-19201,CaMnO3,Orthorhombic,Pnma,62,20,218.020436769633,4.3570363296489,4.3457857249747,-138.9151958,-6.94575979,Ca,Mn,O,0.0350749438333366,146.877685828329,146.60257634026,146.740131084295
mp-1017467,CaMnO3,Cubic,Pm-3m,221,5,54.9463706941314,4.32204598598116,4.29364791893483,-34.30108963,-6.860217926,Ca,Mn,O,0.116549627333336,,,
mp-989401,CaMoN3,Orthorhombic,Pmm2,25,10,134.271882374252,4.40359091070475,4.40359091711828,-81.02779428,-8.102779428,Ca,Mo,N,0.0468834550000015,,,
mp-989649,CaMoN3,Monoclinic,P2/m,10,10,157.611172889019,3.75150079748991,3.7515007424943,-81.21495633,-8.121495633,Ca,Mo,N,0.026769174,,,
mp-989635,CaMoN3,Monoclinic,C2/m,12,10,140.098329303542,4.22045318974069,4.1111392263712,-81.48086114,-8.148086114,Ca,Mo,N,0,108.807618063985,101.547538120023,105.177578092004
mp-607467,CaMoO3,Monoclinic,P2_1/c,14,20,251.539590176511,4.85913312926773,4.8606290960611,-142.09880963,-7.1049404815,Ca,Mo,O,0,,,
mp-19012,CaMoO3,Orthorhombic,Pnma,62,20,238.544239150623,5.12384772024339,4.85596329832873,-141.96056911,-7.0980284555,Ca,Mo,O,0.00636227249999877,,,
mp-1045305,CaMoO3,Triclinic,P-1,2,20,251.895858190074,4.85226063156158,4.85226106280858,-141.89782577,-7.0948912885,Ca,Mo,O,0.00969480949999912,,,
mp-4957,CaNbO3,Orthorhombic,Pnma,62,20,253.673570573561,4.73882468377858,4.73882532112722,-162.68739767,-8.1343698835,Ca,Nb,O,0.0589310007500234,,,
mp-1207078,CaNiH3,Cubic,Pm-3m,221,5,43.0319375612644,3.92812755322689,3.81782255784877,-20.24592745,-4.04918549,Ca,Ni,H,0,,,
mp-1368210,CaNiO3,Orthorhombic,Pnma,62,20,219.310570085269,4.44514196455733,4.44514196455733,-105.86348504,-5.293174252,Ca,Ni,O,0.0557794395000011,,,
mp-754103,CaNiO3,Hexagonal,P6_3mc,186,10,111.930057010399,4.35480265263534,4.29808830602095,-61.30203955,-6.130203955,Ca,Ni,O,0.072650996000001,75.3030343584794,72.0028895333465,73.6529619459129
mp-1016900,CaOsO3,Cubic,Pm-3m,221,5,61.7311750736624,7.48630359013147,7.48630347020916,-35.90867773,-7.181735546,Ca,Os,O,0.256620675599999,,,
mp-1213970,CaOsO3,Orthorhombic,Pnma,62,20,235.814320632452,7.83902040109424,7.83902081773933,-146.95025663,-7.3475128315,Ca,Os,O,0.087307310099999,,,
mp-20079,CaPbO3,Orthorhombic,Pnma,62,20,275.272966140025,7.12482118985532,6.87939260480229,-117.43517546,-5.871758773,Ca,Pb,O,0.00245447299999757,,,
mp-756708,CaPrO3,Orthorhombic,Pnma,62,20,326.022518554003,4.66515785758511,4.66516042668197,-138.5436124,-6.92718062,Ca,Pr,O,0.175380001375,,,
mp-9789,CaPS3,Monoclinic,P2_1/c,14,20,443.778817710964,2.50322702192814,2.46061706872036,-100.37780622,-5.018890311,Ca,P,S,0,,,
mp-11007,CaPSe3,Monoclinic,P2_1/c,14,20,507.167998190968,4.03284688680564,3.97522058551411,-89.29629188,-4.464814594,Ca,P,Se,0,,,
mp-4784,CaPtO3,Orthorhombic,Cmcm,63,10,114.942368310337,8.18146661006258,7.91812915645048,-61.5656423,-6.15656423,Ca,Pt,O,0.0105472816666632,147.394845801898,144.981897909839,146.188371855869
mp-989606,CaReN3,Monoclinic,C2/c,15,20,312.530170248513,5.70224756174739,5.50997083296144,-168.23992183,-8.4119960915,Ca,Re,N,0,,,
mp-1016833,CaRhO3,Cubic,Pm-3m,221,5,61.8270977728852,5.12934595475647,5.12934774053879,-31.26327032,-6.252654064,Ca,Rh,O,0.257332476000002,,,
mp-1181917,CaRhO3,Orthorhombic,Pnma,62,20,226.307363010977,5.60534256837766,5.37084911740604,-130.1459149,-6.507295745,Ca,Rh,O,0.0137827365000023,,,
mp-1078659,CaRhO3,Orthorhombic,Cmcm,63,10,111.342090894055,5.69654425041184,5.47828668385009,-65.21970168,-6.521970168,Ca,Rh,O,0,,,
mp-1193602,CaRhO3,Monoclinic,P2_1/m,11,30,335.78585891721,5.66669319926076,5.45590735310519,-195.62216136,-6.520738712,Ca,Rh,O,0.000235908000001395,,,
mp-1016835,CaRuO3,Cubic,Pm-3m,221,5,60.6773308282706,5.17630967136411,5.17631014170298,-34.36362608,-6.872725216,Ca,Ru,O,0.165233397500013,,,
mp-20947,CaRuO3,Orthorhombic,Pnma,62,20,227.743309192898,5.51646773750719,5.35031403931109,-140.68287407,-7.0341437035,Ca,Ru,O,0,,,
mp-1377563,CaSbO3,Orthorhombic,Pnma,62,20,273.7490171218,5.09139665742592,5.09139665742592,-124.24024124,-6.212012062,Ca,Sb,O,0.119080528799999,,,
mp-1340624,CaSbO3,Monoclinic,P2_1/m,11,20,276.59592149863,5.03899270530084,5.03899270530084,-124.40629491,-6.2203147455,Ca,Sb,O,0.110777845299999,,,
mp-1183534,CaScO3,Cubic,Pm-3m,221,5,68.1547494166365,3.24122707484248,3.24122749901852,-36.47690859,-7.295381718,Ca,Sc,O,0.2404754345,,,
mp-557997,CaSeO3,Monoclinic,P2_1/c,14,20,284.231354786736,3.9034417697446,3.74246440870902,-119.18602589,-5.9593012945,Ca,Se,O,0,,,
mp-754140,CaSeO3,Orthorhombic,Pnma,62,20,288.97320915791,3.83938893774531,3.70514594181927,-118.94972761,-5.9474863805,Ca,Se,O,0.0119276844999998,,,
mp-5893,CaSiO3,Cubic,Pm-3m,221,5,46.9663258183159,4.10700725534391,4.10700886288082,-36.22744849,-7.245489698,Ca,Si,O,0.244203541666668,,,
mp-4428,CaSiO3,Triclinic,P-1,2,30,390.242561585517,2.96570994371765,2.96570962822279,-224.01603678,-7.467201226,Ca,Si,O,0.0229369943333335,77.077882095102,73.8832344280932,75.4805582615976
mp-3387,CaSiO3,Tetragonal,I4/mcm,140,10,93.9518266932576,4.10616903750977,4.10507419255859,-289.93901,-7.24847525,Ca,Si,O,0.241300425666667,,,
mp-4356,CaSiO3,Cubic,Im-3,204,20,187.989360397809,4.10429697690311,4.10429634184486,-144.91943331,-7.2459716655,Ca,Si,O,0.243690598666667,,,
mp-3382,CaSiO3,Tetragonal,P4/mbm,127,10,94.0063967620323,4.10378543453704,4.10378510001618,-72.4594499,-7.24594499,Ca,Si,O,0.243715751666667,,,
mp-17552,CaSiO3,Monoclinic,C2/c,15,30,410.094728763634,2.82214367603606,2.82214377463451,-224.0976944,-7.46992314666667,Ca,Si,O,0.0203136843333338,,,
mp-560885,CaSiO3,Orthorhombic,Pnma,62,20,188.080959210009,4.10229811040659,4.10229798727428,-144.97683649,-7.2488418245,Ca,Si,O,0.241228633166668,,,
mp-649676,CaSiO3,Monoclinic,P2_1/c,14,60,1157.93633646943,1.99898078833036,1.99898069373876,-427.98940399,-7.13315673316667,Ca,Si,O,0.350347124833333,,,
mp-5096,CaSiO3,Orthorhombic,Imma,74,10,93.9932629109897,4.10435886400357,4.10438070100819,-144.97052877,-7.2485264385,Ca,Si,O,0.241109046666669,,,
mp-4429,CaSiO3,Triclinic,P-1,2,30,398.682626904532,2.90292620559348,2.81892009096546,-224.70631391,-7.49021046366667,Ca,Si,O,7.43000000102967E-06,93.4965606819991,91.5828182722266,92.5396894771129
mp-5733,CaSiO3,Monoclinic,P2_1/c,14,60,797.332924207957,2.90304391106308,2.81893319100032,-449.4142599,-7.490237665,Ca,Si,O,0,92.9533993725204,91.4739159684205,92.2136576704705
mp-561086,CaSiO3,Monoclinic,C2/c,15,60,819.315737216096,2.82515321697223,2.82515376266661,-448.19700598,-7.46995009966667,Ca,Si,O,0.0202164350000009,,,
mp-4853,CaSiO3,Tetragonal,I4/mmm,139,20,187.865898114235,4.10699425130107,4.1046206999886,-144.919378,-7.2459689,Ca,Si,O,0.243710332166668,,,
mp-1181886,CaSiO3,Cubic,Im-3,204,20,188.037654314735,4.1032428658105,4.10324309462112,-144.92473375,-7.2462366875,Ca,Si,O,0.243732276166668,,,
mp-1182670,CaSnO3,Triclinic,P-1,2,10,173.27347287152,3.96340602913142,3.9634062586267,-60.23504048,-6.023504048,Ca,Sn,O,1.072005831,,,
mp-546910,CaSnO3,Cubic,Pm-3m,221,5,82.3090716360812,4.17179487884344,4.17179529642487,-25.01661227,-5.003322454,Ca,Sn,O,1.434899678,,,
mp-7986,CaSnO3,Cubic,Pm-3m,221,5,67.2415908458159,5.10660975171035,5.10811153528325,-31.21766379,-6.243532758,Ca,Sn,O,0.195219682000001,,,
mp-4438,CaSnO3,Orthorhombic,Pnma,62,20,248.805712192398,5.52039678684277,5.34138077897055,-128.48891665,-6.4244458325,Ca,Sn,O,0.0140191064999993,143.548465601442,143.036302261101,143.292383931272
mp-4190,CaSnO3,Trigonal,R-3,148,10,134.533909393024,5.10468424032232,4.9503474337929,-64.38641005,-6.438641005,Ca,Sn,O,0,,,
mp-866917,CaSnS3,Orthorhombic,Amm2,38,5,124.562354159417,3.39917494074478,3.39917567975255,-22.41203433,-4.482406866,Ca,Sn,S,0.295076157249998,,,
mp-866826,CaSnS3,Trigonal,R-3,148,10,245.892919813756,3.44385054388363,3.44385107061953,-46.98324773,-4.698324773,Ca,Sn,S,0.0723755992499981,,,
mp-1100379,CaSnS3,Monoclinic,C2/c,15,60,1700.56272813872,2.98778204987917,2.98778781614429,-277.69862761,-4.62831046016667,Ca,Sn,S,0.141206320083331,,,
mp-1100357,CaSnS3,Monoclinic,C2/m,12,25,630.184915648718,3.35940469459672,3.35940458938247,-112.8227305,-4.51290922,Ca,Sn,S,0.255249257649998,,,
mp-866894,CaSnS3,Orthorhombic,Amm2,38,5,131.572792793966,3.21806069345884,3.25238001320854,-21.30502761,-4.261005522,Ca,Sn,S,0.495063489249998,,,
mp-1100323,CaSnS3,Hexagonal,P6_3/mmc,194,20,501.377463794421,3.37796780584839,3.37797703074861,-86.30049433,-4.3150247165,Ca,Sn,S,0.453440864749997,,,
mp-866845,CaSnS3,Orthorhombic,Ima2,46,10,237.953220599082,3.55876026181005,3.55877008422537,-46.06274018,-4.606274018,Ca,Sn,S,0.164425703249998,,,
mp-1054609,CaSnS3,Trigonal,R-3m,166,15,387.992171839519,3.27384878007795,3.27384872763451,-66.03279774,-4.402186516,Ca,Sn,S,0.369143225249998,,,
mp-1100340,CaSnS3,Orthorhombic,P2_12_12_1,19,20,514.544298253955,3.29152793456779,3.29152746224263,-93.06095257,-4.6530476285,Ca,Sn,S,0.116299639249998,,,
mp-1100371,CaSnS3,Orthorhombic,Cmcm,63,30,777.392533895866,3.26791844035578,3.26791877306609,-135.53087912,-4.51769597066667,Ca,Sn,S,0.251262901249998,,,
mp-866504,CaSnS3,Monoclinic,P2_1,4,30,763.122238993269,3.32902812564425,3.3290283034129,-137.61705575,-4.58723519166667,Ca,Sn,S,0.182302704249999,,,
mp-1100358,CaSnS3,Monoclinic,P2_1/c,14,40,1095.11472737935,3.09307671412366,3.09307665327937,-184.6266385,-4.6156659625,Ca,Sn,S,0.152888840999998,,,
mp-866505,CaSnS3,Tetragonal,P4_1,76,100,2809.41906707896,3.01421199692433,3.02733399628208,-460.62295286,-4.6062295286,Ca,Sn,S,0.164027984849998,,,
mp-866816,CaSnS3,Cubic,Pm-3m,221,5,125.835479521558,3.36478419622766,3.3795259619807,-21.43533745,-4.28706749,Ca,Sn,S,0.480264731249998,,,
mp-1100365,CaSnS3,Orthorhombic,Pmc2_1,26,20,527.069095482766,3.21331101707679,3.21331108609784,-90.57005986,-4.528502993,Ca,Sn,S,0.259949499749998,,,
mp-867022,CaSnS3,Triclinic,P1,1,30,883.993703306268,2.87383879252932,2.86354290906953,-137.18761255,-4.57292041833333,Ca,Sn,S,0.185940542916665,,,
mp-866519,CaSnS3,Trigonal,R-3c,167,10,235.570395690727,3.59475758044528,3.59475166957076,-45.74368943,-4.574368943,Ca,Sn,S,0.196038190249998,,,
mp-867047,CaSnS3,Monoclinic,C2,5,60,1629.52207448704,3.11803741316352,3.11803746173919,-273.46806002,-4.55780100033333,Ca,Sn,S,0.212797223083331,,,
mp-866951,CaSnS3,Trigonal,R-3m,166,15,373.49804602975,3.40089516386767,3.4008948483385,-65.0094576,-4.33396384,Ca,Sn,S,0.435138810583331,,,
mp-866820,CaSnS3,Cubic,Pm-3m,221,5,141.036260941882,3.00213030316611,3.00213017296342,-18.83799011,-3.767598022,Ca,Sn,S,1.00520843325,,,
mp-867053,CaSnS3,Triclinic,P1,1,90,2491.74925889447,3.05864089796942,3.05864093567214,-409.34530318,-4.54828114644444,Ca,Sn,S,0.221534703583332,,,
mp-1100375,CaSnS3,Monoclinic,P2_1/c,14,60,1790.75646260085,2.8372985941634,2.83729843412678,-279.62605995,-4.6604343325,Ca,Sn,S,0.108785907916665,,,
mp-866936,CaSnS3,Orthorhombic,Pnma,62,20,466.990456186569,3.62670566140829,3.6267051482946,-91.13588284,-4.556794142,Ca,Sn,S,0.213450441749998,,,
mp-1331908,CaSnS3,Tetragonal,P4_3,78,100,2797.24135821179,3.02733428115437,3.02733428115437,-460.78085689,-4.6078085689,Ca,Sn,S,0.163521172349998,,,
mp-1100345,CaSnS3,Monoclinic,P2_1,4,10,252.05848844462,3.35961098101956,3.35961105652669,-46.61119166,-4.661119166,Ca,Sn,S,0.108723011249998,,,
mp-1238933,CaSnS3,Orthorhombic,Pmc2_1,26,20,475.395924348036,3.56258193336038,3.56258197240244,-92.74193314,-4.637096657,Ca,Sn,S,0.133065560749998,,,
mp-1100335,CaSnS3,Triclinic,P-1,2,30,812.679883379634,3.12602224918918,3.10441442824187,-140.27801234,-4.67593374466667,Ca,Sn,S,0.0901632422499983,,,
mp-866629,CaSnS3,Triclinic,P-1,2,90,2460.23574387951,3.09781947104045,3.09781937930041,-412.79594687,-4.58662163188889,Ca,Sn,S,0.183786751138888,,,
mp-1100334,CaSnS3,Orthorhombic,Amm2,38,5,132.861497953751,3.18684674898258,3.18684653952241,-21.46569531,-4.293139062,Ca,Sn,S,0.475278117249998,,,
mp-1100328,CaSnS3,Hexagonal,P-6m2,187,15,401.510734922073,3.16362076521599,3.16362083585841,-68.18649153,-4.545766102,Ca,Sn,S,0.227563155249998,,,
mp-1100330,CaSnS3,Triclinic,P-1,2,30,893.976640382844,2.84174695641405,2.84174710519311,-139.80602632,-4.66020087733333,Ca,Sn,S,0.108971236583331,,,
mp-1100389,CaSnS3,Monoclinic,C2,5,10,5583.92663582484,0.151652863811784,0.151652852475434,-18.7834587,-1.87834587,Ca,Sn,S,2.87350452625,,,
mp-866787,CaSnS3,Monoclinic,C2/c,15,120,3217.64693179478,3.15815308610775,3.15815303551763,-548.34916125,-4.56957634375,Ca,Sn,S,0.201753397499998,,,
mp-866844,CaSnS3,Orthorhombic,Pnma,62,20,458.067125176728,3.69735533983593,3.69735536261683,-93.1817806,-4.65908903,Ca,Sn,S,0.111517281249999,,,
mp-866606,CaSnS3,Monoclinic,P2_1/c,14,60,1521.18916956756,3.34009135449656,3.33484307635745,-275.61851784,-4.593641964,Ca,Sn,S,0.175807925583331,,,
mp-1100343,CaSnS3,Monoclinic,Pm,6,20,504.405783861834,3.35768737286999,3.35768681444603,-89.37212937,-4.4686064685,Ca,Sn,S,0.301964471249998,,,
mp-866495,CaSnS3,Monoclinic,P2_1/c,14,20,503.222485974289,3.3655827759692,3.36558290249686,-92.15387698,-4.607693849,Ca,Sn,S,0.162689312249999,,,
mp-866471,CaSnS3,Cubic,Fd-3m,227,20,526.629638184269,3.21599243277467,3.21599201999595,-89.06244636,-4.453122318,Ca,Sn,S,0.317856746749998,,,
mp-1100344,CaSnS3,Hexagonal,P6_3/mmc,194,40,1019.85347728363,3.32133383667319,3.32445398506673,-175.67197443,-4.39179936075,Ca,Sn,S,0.377004774249998,,,
mp-1100381,CaSnS3,Tetragonal,I4_1/a,88,80,2042.70446153672,3.31646004239175,3.3164598348181,-375.45033701,-4.693129212625,Ca,Sn,S,0.0669750637499975,,,
mp-866565,CaSnS3,Cubic,P2_13,198,40,992.437842564577,3.41308414217441,3.41308439584472,-181.42962936,-4.535740734,Ca,Sn,S,0.234907166499998,,,
mp-866811,CaSnS3,Orthorhombic,Pnma,62,20,440.303203398241,3.84652420923595,3.77569351089098,-93.88545345,-4.6942726725,Ca,Sn,S,0.0738377317499976,,,
mp-866941,CaSnS3,Monoclinic,P2_1/c,14,20,550.312773006212,3.07758971688697,3.09603754811323,-93.70962906,-4.685481453,Ca,Sn,S,0.0833630102499976,,,
mp-866850,CaSnS3,Orthorhombic,Cmcm,63,10,221.280216669363,3.82690544316961,3.82690636680184,-46.83048998,-4.683048998,Ca,Sn,S,0.0889667752499976,,,
mp-1100325,CaSnS3,Tetragonal,P4mm,99,5,134.329136145951,3.15202825661609,3.12224748797665,-22.71587632,-4.543175264,Ca,Sn,S,0.225140153249998,,,
mp-1100329,CaSnS3,Orthorhombic,Cmcm,63,10,239.903217525097,3.52983371533626,3.52983323363212,-45.65019891,-4.565019891,Ca,Sn,S,0.160838375249998,,,
mp-866833,CaSnS3,Hexagonal,P6_3/mmc,194,10,247.747476559447,3.41807100277181,3.41808891335282,-43.81097048,-4.381097048,Ca,Sn,S,0.389485528249998,,,
mp-989638,CaTcN3,Monoclinic,C2/m,12,10,137.57271785456,4.34766333811324,4.24444874335848,-78.43702288,-7.843702288,Ca,Tc,N,0,,,
mp-989634,CaTcN3,Monoclinic,C2/c,15,20,317.786107609195,3.76429206575902,3.76429232606146,-156.65341665,-7.8326708325,Ca,Tc,N,0.0120925325000005,,,
mp-998432,CaTcO3,Monoclinic,Cm,8,5,61.0751227328956,5.05912695117765,5.05912685666052,-36.99467916,-7.398935832,Ca,Tc,O,0.109039946499999,,,
mp-1188853,CaTcO3,Orthorhombic,Pnma,62,20,234.847392592011,5.26276738360495,5.19672150104323,-150.04185041,-7.5020925205,Ca,Tc,O,0,,,
mp-998525,CaTcO3,Tetragonal,P4mm,99,5,61.0762156660127,5.05903642023483,5.0589964753912,-36.95743833,-7.391487666,Ca,Tc,O,0.1089518945,,,
mp-998543,CaTcO3,Trigonal,R3c,161,10,119.528338203733,5.17010115103945,5.17019182808706,-74.74218936,-7.474218936,Ca,Tc,O,0.0294888195,,,
mp-4019,CaTiO3,Orthorhombic,Pnma,62,20,224.099737693001,4.02925941391082,3.94046417052631,-323.71145309,-8.09278632725,Ca,Ti,O,0,171.911037139511,171.891007307908,171.90102222371
mp-556003,CaTiO3,Orthorhombic,Imma,74,10,112.528757267495,4.01211210218927,3.92502078643565,-161.63437689,-8.0817188445,Ca,Ti,O,0.0110721115000008,,,
mp-754701,CaTiO3,Trigonal,R-3,148,10,124.953416979133,3.61317041015877,3.61290269458114,-80.63881966,-8.063881966,Ca,Ti,O,0.0283526885000001,137.688795296811,132.811269596611,135.250032446711
mp-3442,CaTiO3,Tetragonal,I4/mcm,140,10,112.413125157221,4.01623910238059,3.92454702702014,-80.74271821,-8.074271821,Ca,Ti,O,0.0184837075000015,,,
mp-1205364,CaTiO3,Orthorhombic,Cmcm,63,20,225.028991711759,4.01262064450375,3.93109005631757,-161.60012704,-8.080006352,Ca,Ti,O,0.0126697670000002,,,
mp-5827,CaTiO3,Cubic,Pm-3m,221,5,58.8398576228964,3.83649797192533,3.83649669722125,-40.14237192,-8.028474384,Ca,Ti,O,0.0644675975000002,174.769431985565,174.769431985565,174.769431985565
mp-1205521,CaTlBr3,Orthorhombic,Cmcm,63,10,328.628484107892,4.89299448182151,4.69423636922096,-34.52985584,-3.452985584,Ca,Tl,Br,0,,,
mp-998787,CaTlCl3,Orthorhombic,Cmcm,63,10,285.106393587846,4.08655033074057,3.9321169205786,-38.42057245,-3.842057245,Ca,Tl,Cl,0,,,
mp-998151,CaTlCl3,Monoclinic,Cm,8,5,157.4006604066,3.7010696905685,3.70107077146131,-19.01572314,-3.803144628,Ca,Tl,Cl,0.0387550969999992,,,
mp-998615,CaTlF3,Trigonal,R3c,161,10,174.912068283254,5.7237938580777,5.43453436638205,-50.53064102,-5.053064102,Ca,Tl,F,0.0112810064999991,,,
mp-1097061,CaTlF3,Monoclinic,Cm,8,5,91.7408786965144,5.45645864944933,5.45646162600032,-25.23306551,-5.046613102,Ca,Tl,F,0.0181023394999986,,,
mp-1206188,CaTlI3,Orthorhombic,Cmcm,63,10,404.794146153762,5.12916028687328,4.98642402381841,-30.29189277,-3.029189277,Ca,Tl,I,0.0163930849999994,,,
mp-1183538,CaTmO3,Cubic,Pm-3m,221,5,77.9698447923031,5.47360107570732,5.4736018336456,-34.12519728,-6.825039456,Ca,Tm,O,0.401455955249999,,,
mp-1016853,CaVO3,Cubic,Pm-3m,221,5,56.1997556142326,4.10756807170915,4.10756922839926,-36.15606949,-7.231213898,Ca,V,O,0.106231662910714,,,
mp-1435359,CaVO3,Monoclinic,P2_1/c,14,20,224.800619205344,4.10753889584289,4.10753889584289,-146.96173624,-7.348086812,Ca,V,O,0.00881469091071274,167.377667727925,166.845187232916,167.11142748042
mp-22608,CaVO3,Orthorhombic,Pnma,62,20,214.742986754626,4.29991824715843,4.23934065319951,-158.43912702,-7.921956351,Ca,V,O,0.00115662641071346,160.955614035546,158.350716942126,159.653165488836
mp-989616,CaWN3,Monoclinic,C2/m,12,10,145.955220330963,6.05117930480349,5.94445210029518,-86.32968046,-8.632968046,Ca,W,N,0,,,
mp-1431390,CaWO3,Monoclinic,Cm,8,5,69.250074167833,6.52024533355888,6.52024533355888,-35.21723045,-7.04344609,Ca,W,O,0.220536352833337,,,
mp-1342410,CaWO3,Orthorhombic,Pnma,62,20,255.790379734609,7.06089843425534,7.06089843425534,-144.14355651,-7.2071778255,Ca,W,O,0.0536462823333359,,,
mp-1183544,CaYO3,Cubic,Pm-3m,221,5,82.060348005378,3.58133514243315,3.58133417026991,-35.43112591,-7.086225182,Ca,Y,O,0.477989082875,,,
mp-1183540,CaZnO3,Cubic,Pm-3m,221,5,58.2587787484316,4.37475992837861,4.37476046768826,-25.05801297,-5.011602594,Ca,Zn,O,0.238167657999997,,,
mp-542112,CaZrO3,Cubic,Pm-3m,221,5,71.9949821557121,4.13549636147206,4.13549674256774,-40.72552969,-8.145105938,Ca,Zr,O,0.191893084500004,,,
mp-4571,CaZrO3,Orthorhombic,Pnma,62,20,258.726500786365,4.60308450575054,4.4665397647921,-166.74663545,-8.3373317725,Ca,Zr,O,0,148.62502458607,147.885565682639,148.255295134355
mp-776024,CaZrO3,Orthorhombic,Pba2,32,40,542.785669801345,4.38825125001052,4.38825073175936,-332.47710549,-8.31192763725,Ca,Zr,O,0.0253653767500044,,,
mp-7781,CaZrS3,Orthorhombic,Pnma,62,20,450.795609765923,3.35200829689053,3.35200857779218,-126.47320661,-6.3236603305,Ca,Zr,S,0.0365724825000022,70.3971904905537,68.0299871203926,69.2135888054731
mp-755478,CdBiO3,Trigonal,R3,146,10,145.269175846934,8.44481780831545,8.05220772290086,-49.61013443,-4.961013443,Cd,Bi,O,0,106.473272539743,96.4221647676972,101.44771865372
mp-1183631,CdBO3,Cubic,Pm-3m,221,5,42.9382778544278,6.62154714390219,6.62154652727834,-25.35143792,-5.070287584,Cd,B,O,1.021459680125,,,
mp-547864,CdCO3,Trigonal,R-3m,166,5,70.7555627166026,4.04646601364791,4.03545009483999,-31.35056396,-3.135056396,Cd,C,O,3.233303651,,,