material_id,formula_pretty,crystal_system,space_group,number,nsites,volume,density,density,energy,energy_per_atom,A_site,B_site,X_site,energy_above_hull,k_voigt,k_reuss,k_vrh
mp-1185357,LiLaO3,Cubic,Pm-3m,221,5,55.858268996912,5.76256037230548,5.76256204375341,-31.54564834,-6.309129668,Li,La,O,0.221156129839287,,,
mp-976331,LiLuO3,Cubic,Pm-3m,221,5,47.8241622429473,7.98274781718424,7.98274762333266,-30.17375413,-6.034750826,Li,Lu,O,0.537357950839287,,,
mp-23736,LiMgH3,Trigonal,R3c,161,10,92.7437849241248,1.22717387395621,1.20447415963623,-29.96145655,-2.996145655,Li,Mg,H,0.00879413200000068,39.9404790237206,39.8023402071707,39.8714096154456
mp-1185356,LiMgO3,Cubic,Pm-3m,221,5,62.5627352851941,2.10329822220233,2.10329823619368,-22.8736833,-4.57473666,Li,Mg,O,0.580104923428572,,,
mp-758779,LiMnF3,Trigonal,P3,143,30,356.562219866895,3.32164204917631,3.34029466131789,-177.45744317,-5.91524810566667,Li,Mn,F,0.0318720726666672,,,
mp-759048,LiMnF3,Triclinic,P-1,2,90,1192.98933444885,2.97833022087669,3.02012117885024,-529.62730826,-5.88474786955555,Li,Mn,F,0.0684088248888894,,,
mp-760095,LiMnF3,Trigonal,P-3,147,30,378.307103056187,3.13071590009671,3.15448793095087,-175.75913482,-5.85863782733333,Li,Mn,F,0.0938095836666673,,,
mp-1176631,LiMnF3,Orthorhombic,Pmma,51,10,122.914086513807,3.211923862837,3.21192321962095,-57.6229005,-5.76229005,Li,Mn,F,0.0344124040000002,,,
mp-859873,LiMnF3,Hexagonal,P6_3/mmc,194,10,178.236431414576,2.21498312336736,2.22771738161876,-58.56648241,-5.856648241,Li,Mn,F,0.092549560000001,,,
mp-765090,LiMnF3,Triclinic,P-1,2,40,486.470476241664,3.24616359539475,3.24616344965254,-227.87949974,-5.6969874935,Li,Mn,F,0.0991563760000016,,,
mp-758456,LiMnF3,Orthorhombic,Cmcm,63,10,116.863767120324,3.37821291646392,3.3998581395925,-58.5103441,-5.85103441,Li,Mn,F,0.102074306000001,,,
mp-776156,LiMnF3,Cubic,P2_13,198,20,239.303551420817,3.29949710489893,3.31850720960756,-118.14650691,-5.9073253455,Li,Mn,F,0.0457147080000011,,,
mp-763149,LiMnF3,Cubic,P2_13,198,20,243.074602220817,3.24830882326298,3.24830942206471,-115.29163554,-5.764581777,Li,Mn,F,0.0325725935000003,,,
mp-763362,LiMnF3,Orthorhombic,Pna2_1,33,20,240.404878023508,3.28438167143933,3.28438170569664,-114.38678193,-5.7193390965,Li,Mn,F,0.0777697660000012,,,
mp-764783,LiMnF3,Orthorhombic,Pnma,62,20,295.134569310473,2.67532663811538,2.67532693444108,-114.12407425,-5.7062037125,Li,Mn,F,0.0905800905000005,,,
mp-762988,LiMnF3,Monoclinic,Cc,9,20,251.844072293094,3.13519936330331,3.13519904441084,-113.95634304,-5.697817152,Li,Mn,F,0.0989843400000003,,,
mp-777972,LiMnF3,Orthorhombic,Pna2_1,33,40,496.509853513223,3.18052650725084,3.20234206618824,-236.93627555,-5.92340688875,Li,Mn,F,0.0272502457500003,,,
mp-754676,LiMnF3,Hexagonal,P6_322,182,10,113.940864238664,3.4648735569143,3.47210239158986,-59.19944496,-5.919944496,Li,Mn,F,0.0244890570000003,,,
mp-765457,LiMnF3,Orthorhombic,Pnma,62,20,258.937075933795,3.04931756975158,3.04931787281613,-115.14829505,-5.7574147525,Li,Mn,F,0.0396612265000007,,,
mp-777352,LiMnF3,Orthorhombic,Pbca,61,80,1054.14740326906,2.99609474977186,3.02123999360057,-473.04810848,-5.913101356,Li,Mn,F,0.0386231345000008,,,
mp-778819,LiMnF3,Orthorhombic,Amm2,38,10,127.308757092506,3.10104895035338,3.10105273498244,-57.21727975,-5.721727975,Li,Mn,F,0.0752987760000003,,,
mp-774399,LiMnF3,Triclinic,P-1,2,50,661.798488720863,2.98271070636296,2.98271097445866,-285.89796567,-5.7179593134,Li,Mn,F,0.0789341844000004,,,
mp-1176635,LiMnF3,Orthorhombic,Cmcm,63,10,103.988429209625,3.79648669138633,3.79648768847189,-57.29887591,-5.729887591,Li,Mn,F,0.0670142120000001,,,
mp-754770,LiMnF3,Monoclinic,P2_1/c,14,20,269.78449747317,2.92671144005797,2.96771570720212,-117.68469103,-5.8842345515,Li,Mn,F,0.0713627780000001,,,
mp-1176636,LiMnF3,Orthorhombic,Cmcm,63,20,253.783987642148,3.1112340161444,3.11123366822677,-114.42363353,-5.7211816765,Li,Mn,F,0.0755170075000002,,,
mp-1176632,LiMnF3,Orthorhombic,Pnma,62,20,234.255342368953,3.3706013579892,3.37060113382901,-115.05430047,-5.7527150235,Li,Mn,F,0.0438975650000009,,,
mp-777298,LiMnF3,Orthorhombic,Pbcn,60,40,553.943755639079,2.85076369962538,2.87791411528129,-236.1261245,-5.9031531125,Li,Mn,F,0.0486795662500006,,,
mp-763191,LiMnF3,Orthorhombic,Ibam,72,20,255.227373648322,3.0936390709916,3.09363936899378,-113.8796078,-5.69398039,Li,Mn,F,0.102970871500001,,,
mp-752938,LiMnF3,Trigonal,R-3c,167,10,124.314426343666,3.17574314714782,3.20161461997651,-59.11201307,-5.911201307,Li,Mn,F,0.0341083340000008,,,
mp-752829,LiMnF3,Trigonal,R-3,148,10,118.324178531877,3.3365174594992,3.34279054650137,-59.13442475,-5.913442475,Li,Mn,F,0.0403923280000011,,,
mp-759042,LiMnF3,Tetragonal,P4_2/n,86,40,490.941590062584,3.21660006439611,3.23130353114979,-235.05122486,-5.8762806215,Li,Mn,F,0.0777881145000006,,,
mp-776951,LiMnF3,Orthorhombic,Pnma,62,20,215.826616265509,3.6584059406912,3.71123915960281,-118.21433967,-5.9107169835,Li,Mn,F,0.0390418435000006,,,
mp-779317,LiMnF3,Monoclinic,P2_1/c,14,60,803.42804261287,2.94829654888761,2.94829648939131,-343.8328003,-5.73054667166667,Li,Mn,F,0.0659668713333339,,,
mp-1176634,LiMnF3,Orthorhombic,Cmc2_1,36,10,161.474074893319,2.44491685624046,2.44491642137775,-57.0990091,-5.70990091,Li,Mn,F,0.087040676,,,
mp-1176630,LiMnF3,Monoclinic,C2/c,15,20,252.159756487636,3.13127434013736,3.13127370756297,-115.34485226,-5.767242613,Li,Mn,F,0.0296156800000018,,,
mp-778697,LiMnF3,Orthorhombic,Pnma,62,40,441.183653834678,3.5793772876313,3.57937693379114,-229.70472702,-5.7426181755,Li,Mn,F,0.0527480857500002,,,
mp-759093,LiMnF3,Orthorhombic,Pnna,52,20,244.869668387566,3.22449644459564,3.24504047347552,-118.38372389,-5.9191861945,Li,Mn,F,0.029454781500001,,,
mp-759538,LiMnF3,Triclinic,P-1,2,70,925.202850667617,2.98695017084462,3.01571610785847,-411.75665505,-5.88223792928571,Li,Mn,F,0.0713942550000004,,,
mp-757275,LiMnF3,Monoclinic,P2_1/c,14,40,521.215701147379,3.02976818759248,3.05540807526137,-234.97956745,-5.87448918625,Li,Mn,F,0.0762341327500007,,,
mp-759032,LiMnF3,Monoclinic,P2_1/c,14,40,503.141009949238,3.13860869812493,3.16258606292246,-234.29449823,-5.85736245575,Li,Mn,F,0.0932478912500008,,,
mp-763003,LiMnF3,Trigonal,R-3,148,30,491.785939820585,2.40830810065374,2.40830818821146,-171.08921766,-5.702973922,Li,Mn,F,0.0939361466666675,,,
mp-1371141,LiMnF3,Trigonal,P3c1,158,30,356.518703065174,3.32204749000509,3.32204749000509,-172.96210197,-5.765403399,Li,Mn,F,0.0322479510000004,,,
mp-759492,LiMnF3,Monoclinic,P2_1/c,14,40,527.326774678963,2.99465687319107,3.01488947356309,-236.4914294,-5.912285735,Li,Mn,F,0.0396625007500013,,,
mp-777655,LiMnF3,Monoclinic,C2/m,12,20,262.573603523822,3.00708587804937,3.02125904611564,-117.82275063,-5.8911375315,Li,Mn,F,0.0585160085000007,,,
mp-778633,LiMnF3,Triclinic,P-1,2,30,400.696941275418,2.95578014368583,2.95578018148892,-171.92134106,-5.73071136866667,Li,Mn,F,0.066244344666667,,,
mp-779073,LiMnF3,Trigonal,R-3c,167,30,359.988577640732,3.29002678479296,3.28948608293774,-172.31360037,-5.743786679,Li,Mn,F,0.0536845663333354,,,
mp-759023,LiMnF3,Tetragonal,I4_1/a,88,80,934.159079620111,3.38092897593465,3.40582046692649,-470.60713452,-5.8825891815,Li,Mn,F,0.062240102375001,,,
mp-777355,LiMnF3,Orthorhombic,Pccn,56,40,483.013325975302,3.2693978929492,3.28991009424566,-237.00095798,-5.9250239495,Li,Mn,F,0.0212362092500014,,,
mp-756130,LiMnF3,Trigonal,P-31c,163,20,250.228921750316,3.15543610859212,3.17459098057186,-117.66584239,-5.8832921195,Li,Mn,F,0.0662573645000002,,,
mp-753025,LiMnF3,Hexagonal,P6_322,182,20,267.334290701582,2.95353571377944,2.95852564523192,-117.32555028,-5.866277514,Li,Mn,F,0.0844203090000004,,,
mp-778800,LiMnF3,Triclinic,P-1,2,30,373.182076422699,3.17371100458749,3.17371110764482,-171.64553541,-5.721517847,Li,Mn,F,0.0755219230000019,,,
mp-1120793,LiMnO3,Orthorhombic,Pnma,62,20,183.154855859062,3.98472553724219,3.98472490875715,-122.37721433,-6.1188607165,Li,Mn,O,0.183920013966662,,,
mp-1078377,LiNbO3,Trigonal,R-3,148,10,117.212918273471,4.18901542646262,4.18901605110092,-78.37861824,-7.837861824,Li,Nb,O,0.0207068709999998,,,
mp-552588,LiNbO3,Trigonal,R-3c,167,10,111.442158677908,4.40593334383794,4.40593419197115,-78.24702065,-7.824702065,Li,Nb,O,0.0330080319999997,141.912321254343,141.878478291698,141.89539977302
mp-755559,LiNbO3,Monoclinic,C2/m,12,10,125.013788878966,3.92762052275407,3.92763075140195,-78.11551516,-7.811551516,Li,Nb,O,0.0551661699999997,,,
mp-685413,LiNbO3,Triclinic,P1,1,130,1485.47115391595,4.29701201530615,4.29701194647277,-1006.58507712,-7.74296213169231,Li,Nb,O,0.115177704307692,,,
mp-760701,LiNbO3,Monoclinic,C2/c,15,20,252.984208987284,3.88171834751117,3.88171896422673,-156.43926212,-7.821963106,Li,Nb,O,0.0359072000000005,,,
mp-676694,LiNbO3,Triclinic,P1,1,60,669.898753959719,4.39773968761072,4.39773950779579,-471.00287054,-7.85004784233333,Li,Nb,O,0.00801528566666576,,,
mp-675069,LiNbO3,Triclinic,P1,1,70,778.319584001562,4.41598429545748,4.41598419931288,-549.59204503,-7.851314929,Li,Nb,O,0.00685924314285735,,,
mp-686057,LiNbO3,Triclinic,P1,1,40,445.408772257071,4.40949306265466,4.40949327042986,-313.88881055,-7.84722026375,Li,Nb,O,0.0108541032500007,,,
mp-3731,LiNbO3,Trigonal,R3c,161,40,429.062361957696,4.57748585159453,4.41286664448113,-78.58173237,-7.858173237,Li,Nb,O,0,102.619196374004,102.167178372603,102.393187373304
mp-1196213,LiNbO3,Monoclinic,P2_1/c,14,40,486.285049383029,4.03883873009243,3.89573177363997,-313.79056739,-7.84476418475,Li,Nb,O,0.0133306270000002,,,
mp-674361,LiNbO3,Triclinic,P1,1,50,559.927365695011,4.38455729180881,4.38455711076018,-392.39969006,-7.8479938012,Li,Nb,O,0.0100564173999995,,,
mp-776108,LiNbO3,Orthorhombic,Pbcm,57,40,447.33750279178,4.39048118938347,4.39048060120778,-313.16630577,-7.82915764425,Li,Nb,O,0.0298365945000008,,,
mp-1185387,LiNdO3,Cubic,Pm-3m,221,5,53.6741023717396,6.16215547754392,6.16215430066046,-30.95059181,-6.190118362,Li,Nd,O,0.259888149964285,,,
mp-758501,LiNiF3,Trigonal,R-3,148,10,101.622039838387,4.00761995698074,3.82322373402802,-48.25513227,-4.825513227,Li,Ni,F,0.0155647295000003,80.9888093002389,80.7025654447924,80.8456873725157
mp-1185261,LiNiO3,Cubic,Pm-3m,221,5,53.8023086349862,3.50712406821573,3.50712490387927,-21.52079003,-4.304158006,Li,Ni,O,0.502421934454547,,,
mp-1078358,LiOsO3,Trigonal,R3c,161,10,98.515330010611,8.26496819293442,8.09082433721594,-69.2731785,-6.92731785,Li,Os,O,0,,,
mp-1078188,LiOsO3,Trigonal,R-3c,167,10,99.4123630614803,8.19039045023595,8.03958851161261,-69.16935663,-6.916935663,Li,Os,O,0.00594110400000325,,,
mp-1185263,LiPaO3,Cubic,Pm-3m,221,5,80.5209124601804,5.89750883224152,5.8113079114484,-40.92844723,-8.185689446,Li,Pa,O,0,,,
mp-1185388,LiPmO3,Cubic,Pm-3m,221,5,52.5712357067057,6.31537090733444,6.31536832798633,-30.93129947,-6.186259894,Li,Pm,O,0.287546243964285,,,
mp-1202801,LiPO3,Monoclinic,Pc,7,100,1215.86885289899,2.34666476385464,2.34666474076039,-672.13165433,-6.7213165433,Li,P,O,0.000989664133332013,,,
mp-557189,LiPO3,Monoclinic,P2/c,13,100,1212.1365465148,2.35389041174461,2.35389042362169,-672.15637111,-6.7215637111,Li,P,O,0.00251103233333261,,,
mp-29195,LiPO3,Monoclinic,P2_1/c,14,60,703.038506606137,2.43506143782098,2.27877979373989,-403.33268437,-6.72221140616667,Li,P,O,0,,,
mp-1185404,LiPrO3,Cubic,Pm-3m,221,5,54.4792486352878,5.96945357438173,5.96945125846681,-30.9713686,-6.19427372,Li,Pr,O,0.235092001089285,,,
mp-8189,LiReO3,Trigonal,R3c,161,10,103.971225131688,7.70275978483387,7.70275996477708,-75.31535801,-7.531535801,Li,Re,O,0.0748485082857178,,,
mp-1185420,LiRuO3,Cubic,Pm-3m,221,5,56.3913987551979,4.59395186265235,4.59395290318195,-31.24180085,-6.24836017,Li,Ru,O,0.211082630791665,,,
mp-770932,LiSbO3,Monoclinic,C2/m,12,10,115.399193545756,5.08523353797315,4.82745383856361,-58.80884553,-5.880884553,Li,Sb,O,2.90814999992506E-05,,,
mp-4995,LiSbO3,Orthorhombic,Pnna,52,20,215.500133114852,5.44623189593279,5.181963008523,-117.61634002,-5.880817001,Li,Sb,O,0,,,
mp-756951,LiSbO3,Monoclinic,C2/m,12,10,123.565731720164,4.74914720371596,4.749151066516,-58.42225661,-5.842225661,Li,Sb,O,0.0411334394999994,,,
mp-752636,LiSbO3,Cubic,P2_13,198,20,218.243756675974,5.37776528604391,5.37776399406201,-115.83824404,-5.791912202,Li,Sb,O,0.0888104874999991,,,
mp-28835,LiScI3,Hexagonal,P-6c2,188,10,325.355217500434,4.41588947498251,4.41588917841257,-36.81410512,-3.681410512,Li,Sc,I,0.0477254563199998,16.3336694923296,15.7126255060707,16.0231474992001
mp-1211104,LiSeO3,Orthorhombic,P2_12_12_1,19,20,339.692268740851,2.61819149915493,2.6181911988776,-101.32600434,-5.066300217,Li,Se,O,0.207841210666665,,,
mp-1185414,LiSiO3,Cubic,Pm-3m,221,5,43.1937476472557,3.19179893739793,3.19179888626884,-32.07793779,-6.415587558,Li,Si,O,0.321060291666666,,,
mp-973136,LiSmO3,Cubic,Pm-3m,221,5,52.0972271656653,6.54367536409696,6.5436750315753,-30.86064294,-6.172128588,Li,Sm,O,0.308178575339285,,,
mp-998230,LiSnCl3,Trigonal,R3m,160,5,130.682121817545,2.94808244221621,2.78308860530979,-18.00650945,-3.60130189,Li,Sn,Cl,0.0189865334999988,,,
mp-998591,LiSnCl3,Trigonal,R3c,161,10,253.146966325776,3.04377867476453,2.9664751680123,-36.12004511,-3.612004511,Li,Sn,Cl,0.00846836649999894,,,
mp-1105216,LiTaO3,Orthorhombic,Cmcm,63,10,145.723260932726,5.37593942297285,5.37593937028689,-165.72246051,-8.2861230255,Li,Ta,O,0.148102564,,,
mp-754345,LiTaO3,Tetragonal,P4/mbm,127,10,116.869819191742,6.70317990316318,6.70318024684573,-83.48748369,-8.348748369,Li,Ta,O,0.0886449689999989,,,
mp-3666,LiTaO3,Trigonal,R3c,161,10,105.124894843694,7.45208282450324,7.17836899271729,-84.36967554,-8.436967554,Li,Ta,O,0,124.140410609143,122.395686906027,123.268048757585
mp-1105326,LiTaO3,Orthorhombic,Pnma,62,20,270.203736320866,5.79858320213688,5.79858261603615,-163.64600745,-8.1823003725,Li,Ta,O,0.2546535015,,,
mp-1105280,LiTaO3,Orthorhombic,Pnma,62,20,214.730867218276,7.29657019916067,7.36987346128435,-166.47521078,-8.323760539,Li,Ta,O,0.1104540115,,,
mp-862870,LiTcO3,Cubic,Pm-3m,221,5,57.2380406884327,4.43693587970551,4.43693425437706,-34.62238479,-6.924476958,Li,Tc,O,0.0652702085833274,,,
mp-675460,LiTiCl3,Tetragonal,P4/mmm,123,5,124.401487517103,2.15129340563496,2.15129322980343,-21.75502973,-4.351005946,Li,Ti,Cl,0.202078536541668,35.9416998330385,35.9414088631813,35.9415543481099
mp-676210,LiTiCl3,Monoclinic,Cm,8,20,537.646454102792,1.99107869273182,1.99107869267822,-91.40813406,-4.570406703,Li,Ti,Cl,0.0949556015416677,,,
mp-1185236,LiTmO3,Cubic,Pm-3m,221,5,48.289066973131,7.6984412120617,7.69844242060694,-30.29105416,-6.058210832,Li,Tm,O,0.488917546464285,,,
mp-8007,LiUO3,Trigonal,R3c,161,10,126.887189232799,7.66799225145438,7.45234154625296,-85.35351239,-8.535351239,Li,U,O,0,,,
mp-1181180,LiUO3,Orthorhombic,Amm2,38,10,166.090828544996,5.85805966752909,5.85805976175107,-83.28497344,-8.328497344,Li,U,O,0.208022927999998,,,
mp-545712,LiUO3,Cubic,Pm-3m,221,5,78.1976185374707,6.221225160327,6.22151470589955,-41.63342559,-8.326685118,Li,U,O,0.209034424999999,,,
mp-777676,LiVF3,Monoclinic,C2/c,15,20,271.506985333187,2.8103722552587,2.81037276090297,-114.34376768,-5.717188384,Li,V,F,0.0702715509999985,,,
mp-849502,LiVF3,Triclinic,P-1,2,90,1175.14386295047,2.92190662978143,2.97204299844993,-530.29780439,-5.89219782655556,Li,V,F,0.0943156014444426,,,
mp-782665,LiVF3,Orthorhombic,Pbca,61,80,1037.14039106554,2.94284440279252,2.94284432351195,-458.71955833,-5.733994479125,Li,V,F,0.0535132356249983,,,
mp-752911,LiVF3,Orthorhombic,Pnma,62,20,229.384421761418,3.32644951575199,3.40912940379307,-119.139108,-5.9569554,Li,V,F,0.0357912984999995,,,
mp-752607,LiVF3,Trigonal,R-3,148,10,118.245065964196,3.22650121790436,3.33396118829346,-59.46051638,-5.946051638,Li,V,F,0.0450840769999994,57.4998937258386,56.5450399324556,57.0224668291471
mp-778509,LiVF3,Cubic,P2_13,198,20,235.54847799623,3.23939982622827,3.23940045098168,-114.33114324,-5.716557162,Li,V,F,0.0711593504999994,,,
mp-752619,LiVF3,Monoclinic,P2_1/m,11,10,119.440210642857,3.19421614623112,3.27195648597386,-59.00082452,-5.900082452,Li,V,F,0.0791807959999993,,,
mp-753024,LiVF3,Hexagonal,P6_3/mmc,194,10,175.083565199843,2.17906146078982,2.24362975622281,-58.99304966,-5.899304966,Li,V,F,0.0916307489999992,46.009792368614,45.8171931842115,45.9134927764127
mp-777894,LiVF3,Orthorhombic,Pnna,52,20,239.843950441352,3.18138396772238,3.18138396702941,-115.19966197,-5.7599830985,Li,V,F,0.0275804794999992,,,
mp-756643,LiVF3,Monoclinic,C2/c,15,20,252.653395119394,3.02008883881706,3.12190939945839,-117.828948,-5.8914474,Li,V,F,0.100416201999999,,,
mp-752764,LiVF3,Trigonal,R3c,161,10,107.342720535226,3.55420327938734,3.36792367209069,-59.72039587,-5.972039587,Li,V,F,0.0185087989999992,65.2161654818195,64.8498552719571,65.0330103768883
mp-777551,LiVF3,Cubic,P2_13,198,20,234.477516869041,3.25419557865535,3.25419587482705,-115.00885697,-5.7504428485,Li,V,F,0.0371581029999986,,,
mp-777893,LiVF3,Orthorhombic,Pccn,56,40,471.768271145968,3.23479023646858,3.23479011565068,-230.65936121,-5.76648403025,Li,V,F,0.0211545174999994,,,
mp-754098,LiVO3,Monoclinic,C2/m,12,10,109.481337731557,3.21185404548223,3.24166464743628,-73.66137912,-7.366137912,Li,V,O,0.110586672499999,,,
mp-19373,LiVO3,Monoclinic,C2/c,15,20,231.821435217678,3.03369770071284,2.83016247662732,-136.4194152,-6.82097076,Li,V,O,0.0196741134999998,,,
mp-1176521,LiVO3,Monoclinic,C2/m,12,10,104.898270159895,3.35218185163503,3.35218204211716,-135.18599421,-6.7592997105,Li,V,O,0.0819969795000004,,,
mp-763200,LiVO3,Monoclinic,C2,5,10,107.92854975418,3.25806358279442,3.25806517329949,-67.57019855,-6.757019855,Li,V,O,0.0845450154999989,,,
mp-19440,LiVO3,Monoclinic,C2/c,15,20,272.339460134287,2.58235128559425,2.50502581385901,-136.76644869,-6.8383224345,Li,V,O,0,,,
mp-1176510,LiVS3,Triclinic,P-1,2,10,207.547245121311,2.46547920098401,2.46547944347275,-55.18205312,-5.518205312,Li,V,S,0.102973500583333,,,
mp-1185417,LiYbO3,Cubic,Pm-3m,221,5,50.8610161647411,7.44319316676677,7.44319581985573,-25.24802513,-5.049605026,Li,Yb,O,0.323701215428572,,,
mp-976283,LiYO3,Cubic,Pm-3m,221,5,50.1211676128115,4.76565763406068,4.765655812771,-32.34498539,-6.468997078,Li,Y,O,0.415705300089286,,,
mp-754435,LuAlO3,Trigonal,R-3c,167,10,100.496584826591,8.25990902538091,8.25990713326524,-79.32456324,-7.932456324,Lu,Al,O,0.0822064017500086,,,
mp-756850,LuAlO3,Orthorhombic,Cmcm,63,30,371.808078869857,6.69775103235187,6.69775172620129,-237.49147039,-7.91638234633333,Lu,Al,O,0.0983123664166747,,,
mp-755574,LuAlO3,Orthorhombic,Pnma,62,20,202.061213051708,8.21624927904095,8.21624902642559,-159.87583367,-7.9937916835,Lu,Al,O,0.0210325502500073,,,
mp-1185485,LuAlO3,Cubic,Pm-3m,221,5,49.7243095362419,8.34694997045759,8.34695119868305,-38.79740885,-7.75948177,Lu,Al,O,0.255492339750008,,,
mp-755358,LuAlO3,Hexagonal,P6_3/mmc,194,10,114.120482480561,7.27382701147019,7.27385943674515,-79.53412263,-7.953412263,Lu,Al,O,0.0616271787500082,,,
mp-772801,LuBiO3,Trigonal,R-3,148,10,152.593235523087,9.40097430908012,9.40159740927503,-70.62286153,-7.062286153,Lu,Bi,O,0.0588451416250013,,,
mp-1176501,LuBiO3,Trigonal,R3c,161,10,151.491294523026,9.46935658189858,9.46935711898661,-70.92905445,-7.092905445,Lu,Bi,O,0.0277422736250017,,,
mp-760461,LuBO3,Orthorhombic,Cmcm,63,10,117.689290865737,6.59693860139165,6.59693952180014,-83.36303693,-8.336303693,Lu,B,O,0.0287614089999995,,,
mp-7560,LuBO3,Trigonal,R-3c,167,10,109.983677878606,7.05912950773958,6.84011557091903,-83.64963531,-8.364963531,Lu,B,O,0,,,
mp-1222450,LuBO3,Orthorhombic,Ama2,40,10,113.66817285947,6.8303114790316,6.83031322553559,-82.80717106,-8.280717106,Lu,B,O,0.0841256619999999,,,
mp-550950,LuCoO3,Orthorhombic,Pnma,62,20,201.767873133794,9.28003631973529,9.27684357579511,-152.52721931,-7.6263609655,Lu,Co,O,0.0347111426249995,,,
mp-755471,LuCrO3,Orthorhombic,Pnma,62,20,210.022811725514,8.69589311183679,8.4540556018785,-172.73329995,-8.6366649975,Lu,Cr,O,0,,,
mp-1193395,LuFeO3,Hexagonal,P6_3cm,185,30,356.536141961457,7.79121959506605,7.51271113873305,-228.11056523,-7.60368550766667,Lu,Fe,O,0.0138013812916675,,,