material_id,formula_pretty,crystal_system,space_group,number,nsites,volume,density,density,energy,energy_per_atom,A_site,B_site,X_site,energy_above_hull,k_voigt,k_reuss,k_vrh
mp-1183115,AcAlO3,Cubic,Pm-3m,221,5,57.4514132376898,8.72823008186665,8.54677368663323,-39.09924288,-7.819848576,Ac,Al,O,0,,,
mp-1183052,AcBO3,Cubic,Pm-3m,221,5,51.5481264078606,9.20687860580169,9.20687860674916,-35.95268513,-7.190537026,Ac,B,O,0.792472744666666,,,
mp-866101,AcCrO3,Cubic,Pm-3m,221,5,61.3628450402608,8.84878804672862,8.69648776439053,-42.17972925,-8.43594585,Ac,Cr,O,0,,,
mp-864606,AcCuO3,Cubic,Pm-3m,221,5,59.9293866568102,9.38047093807459,9.16094865738273,-33.10720375,-6.62144075,Ac,Cu,O,0,,,
mp-861502,AcFeO3,Cubic,Pm-3m,221,5,61.7973106325867,8.8899994659195,8.88749944089024,-39.36239622,-7.872479244,Ac,Fe,O,0,,,
mp-1183053,AcGaO3,Cubic,Pm-3m,221,5,61.4550782933074,9.31449500321555,9.09709602156382,-35.24674247,-7.049348494,Ac,Ga,O,0,,,
mp-1183142,AcMgO3,Cubic,Pm-3m,221,5,64.7837537322569,7.67174835858463,7.67175047059251,-33.5421901,-6.70843802,Ac,Mg,O,0.0821852571250012,,,
mp-864911,AcMnO3,Cubic,Pm-3m,221,5,62.2413988297879,8.80237325334026,8.74581750474719,-41.25959656,-8.251919312,Ac,Mn,O,0,,,
mp-1183139,AcNiO3,Cubic,Pm-3m,221,5,58.3582177995911,9.49494276708606,9.08984200957633,-32.22996124,-6.445992248,Ac,Ni,O,0,,,
mp-1183145,AcPdO3,Cubic,Pm-3m,221,5,66.6866737391648,9.49754705549638,9.24097272383091,-33.26572516,-6.653145032,Ac,Pd,O,0.00810204100000078,,,
mp-1183152,AcScO3,Cubic,Pm-3m,221,5,70.1918013074356,7.56920740882924,7.56920789310877,-42.38073837,-8.476147674,Ac,Sc,O,0.0241400348749998,,,
mp-1183150,AcSiO3,Cubic,Pm-3m,221,5,62.5790478372491,8.04234550849309,8.042348175117,-36.6716862,-7.33433724,Ac,Si,O,0.470820513500001,,,
mp-865927,AcTiO3,Cubic,Pm-3m,221,5,63.7995700747627,8.40335251816533,8.28464459357667,-42.82411215,-8.56482243,Ac,Ti,O,0,,,
mp-1183168,AcVO3,Cubic,Pm-3m,221,5,62.4713133141628,8.6637462299545,8.40871027977234,-39.98401739,-7.996803478,Ac,V,O,0,,,
mp-558950,AgAsO3,Orthorhombic,Pca2_1,29,120,1728.69951483073,5.32051966437911,5.32051927267678,-635.96416593,-5.29970138275,Ag,As,O,0.0257653142500054,,,
mp-1178563,AgAsO3,Trigonal,R-3,148,10,119.280551623195,6.42573302834993,6.12713900547965,-53.26932324,-5.326932324,Ag,As,O,0,,,
mp-775767,AgAsO3,Monoclinic,C2/c,15,20,304.725452224872,5.03052813349736,5.03052795224848,-105.75242932,-5.287621466,Ag,As,O,0.0372678645000057,,,
mp-776165,AgAuO3,Cubic,Fd-3m,227,20,273.488677155319,8.56917273655506,8.56917224999458,-82.62906297,-4.1314531485,Ag,Au,O,0.0593819920416694,125.879638558258,125.879638558258,125.879638558258
mp-752678,AgAuO3,Orthorhombic,Cmcm,63,20,294.295067125159,7.96334012299018,7.96334062103367,-81.74491022,-4.087245511,Ag,Au,O,0.418690363541669,,,
mp-775774,AgBiO3,Orthorhombic,Cmmm,65,10,154.488213998263,7.84321792639546,7.84322658960505,-49.26636985,-4.926636985,Ag,Bi,O,0.026863360999986,,,
mp-23548,AgBiO3,Trigonal,R-3,148,10,154.630075438743,7.83602236505411,7.83602290690699,-49.04907297,-4.904907297,Ag,Bi,O,0.0488216819999865,,,
mp-780275,AgBO3,Trigonal,R-3c,167,10,109.935380728668,5.03521855083983,5.03521879250732,-59.60036593,-5.960036593,Ag,B,O,0.0851976207083345,,,
mp-985292,AgBO3,Cubic,Pm-3m,221,5,42.2637254875263,6.54874436710512,6.54874680026596,-25.03867502,-5.007735004,Ag,B,O,1.03971330270833,,,
mp-1178562,AgBrO3,Trigonal,R3m,160,5,77.2650683135975,5.06704994239951,4.57296444528785,-18.66179941,-3.732359882,Ag,Br,O,0.0016109087916707,,,
mp-776199,AgClO3,Monoclinic,P2_1/c,14,20,309.045932376099,4.11192388724728,4.11192348404495,-77.72243808,-3.886121904,Ag,Cl,O,0.0486049455000011,,,
mp-775761,AgClO3,Cubic,P2_13,198,20,291.059723328838,4.36602267417872,4.02164684154748,-78.06177346,-3.903088673,Ag,Cl,O,0.0315841525000007,31.8041213545564,31.8041213545564,31.8041213545564
mp-27941,AgClO3,Tetragonal,I4/m,87,20,307.063628115988,4.1384691485306,4.13444242678425,-77.91737226,-3.895868613,Ag,Cl,O,0.0382847265000006,,,
mp-1178561,AgClO3,Trigonal,R3m,160,5,76.8440581875313,4.13426028494186,4.13425987706201,-19.20856268,-3.841712536,Ag,Cl,O,0.0928175745000006,,,
mp-753176,AgCO3,Trigonal,R-3c,167,10,113.345982039862,4.91885954703674,4.66130612898133,-62.02903965,-6.202903965,Ag,C,O,0.0035800969999995,66.25502911792,58.6169691852037,62.4359991515618
mp-891880,AgGeO3,Orthorhombic,Pbam,55,80,1210.69810131088,5.0145456246413,5.1841878936333,-107.56931695,-5.3784658475,Ag,Ge,O,0.0845761869583281,,,
mp-891854,AgGeO3,Orthorhombic,Pmma,51,10,152.236873209293,4.98491326272149,4.98491318286869,-53.80060331,-5.380060331,Ag,Ge,O,0.0869077203333282,,,
mp-779706,AgGeO3,Orthorhombic,P2_12_12,18,20,292.255893683804,5.19330918374775,5.18419888830301,-107.57226373,-5.3786131865,Ag,Ge,O,0.0907621188333279,,,
mp-759939,AgGeO3,Orthorhombic,Pmma,51,10,113.785143529206,6.66947885108977,6.66947876629855,-53.58590241,-5.358590241,Ag,Ge,O,0.112304915333328,,,
mp-779664,AgGeO3,Orthorhombic,Pmc2_1,26,10,152.229631565767,4.9851503976635,4.985150661529,-53.82966755,-5.382966755,Ag,Ge,O,0.0863577643333278,,,
mp-27384,AgIO3,Orthorhombic,Pca2_1,29,40,626.077566461709,5.99992207591981,5.65583460978469,-165.54846115,-4.13871152875,Ag,I,O,0,,,
mp-1202188,AgIO3,Orthorhombic,Pbca,61,40,589.652032046087,6.37056502496401,5.79831128543912,-165.11415336,-4.127853834,Ag,I,O,0.0109432500000004,,,
mp-849271,AgIO3,Orthorhombic,Pnma,62,20,331.97990780951,5.65759632418356,5.65759584763595,-82.23066679,-4.1115333395,Ag,I,O,0.0274698735000003,,,
mp-1178556,AgPbO3,Trigonal,R-3,148,10,146.418468429595,8.23510787178762,8.23510633514352,-47.12574833,-4.712574833,Ag,Pb,O,0.110328907000002,,,
mp-776166,AgPdO3,Orthorhombic,Cmcm,63,20,267.596321977409,6.51035575705174,6.51035621598347,-92.89137849,-4.6445689245,Ag,Pd,O,0.438217555000001,,,
mp-18702,AgPO3,Monoclinic,P2_1/c,14,40,523.544804128728,4.74084182693312,4.40552900872216,-246.57540679,-6.16438516975,Ag,P,O,0,,,
mp-775762,AgPO3,Monoclinic,P2_1/c,14,20,264.726837555252,4.68793252812712,4.68793250531224,-122.38118223,-6.1190591115,Ag,P,O,0.0454448285000009,,,
mp-5470,AgPS3,Monoclinic,C2/m,12,10,222.463817539057,3.50877784813217,3.11152908721451,-42.88515475,-4.288515475,Ag,P,S,0.0096905379999912,,,
mp-776168,AgRuO3,Cubic,Fd-3m,227,20,265.536783464494,6.42702565369613,6.42702471925485,-119.43407432,-5.971703716,Ag,Ru,O,0.0572183593333335,,,
mp-540872,AgSbO3,Cubic,Fd-3m,227,20,271.708067949105,6.78683539431551,6.48163240229557,-107.39785263,-5.3698926315,Ag,Sb,O,0.00688871599998997,,,
mp-860791,AgSbO3,Monoclinic,C2,5,30,430.824968327308,6.42037277796692,6.42037270146072,-160.00894766,-5.33363158866667,Ag,Sb,O,0.0436601923333217,,,
mp-677054,AgSbO3,Triclinic,P1,1,60,857.910165028521,6.44836023973479,6.44836095808704,-319.05054271,-5.31750904516667,Ag,Sb,O,0.0597553393333223,,,
mp-545999,AgSbO3,Trigonal,R-3,148,10,137.636985390937,6.69891863455293,6.37523918318294,-53.77475346,-5.377475346,Ag,Sb,O,0,93.3913035963619,79.0814883156925,86.2363959560272
mp-755834,AgSnO3,Orthorhombic,Cmmm,65,10,134.594913363866,6.77506790667161,6.77507279284434,-52.75168881,-5.275168881,Ag,Sn,O,0.0906154869999982,,,
mp-1404877,AlAgO3,Hexagonal,P6_3/mmc,194,10,116.487243968004,5.21303680900849,5.21303680900849,-52.55160678,-5.255160678,Al,Ag,O,0.574032784643941,,,
mp-1183169,AlAgO3,Cubic,Pm-3m,221,5,52.7777556399064,5.75291885020969,5.75291958624763,-27.19368755,-5.43873751,Al,Ag,O,0.33989444264394,,,
mp-1253488,AlAgO3,Orthorhombic,Pnma,62,20,247.9195771941,4.8987844966332,4.89878518875307,-112.64548313,-5.6322741565,Al,Ag,O,0.19381714914394,,,
mp-1343733,AlAgO3,Orthorhombic,Pnma,62,20,237.677557325303,5.10988330087915,5.10988330087914,-112.237596,-5.6118798,Al,Ag,O,0.21731366264394,,,
mp-1343327,AlAgO3,Hexagonal,P6_3cm,185,30,343.77477103566,5.29927448214778,5.29927448214778,-164.85457442,-5.49515248066667,Al,Ag,O,0.334030971977273,,,
mp-1418444,AlAgO3,Cubic,Pm-3m,221,5,64.179062738118,4.73092208484754,4.73092208484754,-20.62558014,-4.125116028,Al,Ag,O,1.70407743464394,,,
mp-1183159,AlAuO3,Cubic,Pm-3m,221,5,53.2138049795446,8.4860961917872,8.48609808637779,-26.79960013,-5.359920026,Al,Au,O,0.575234608727271,,,
mp-1376082,AlBiO3,Hexagonal,P6_3cm,185,30,409.825690709369,6.90332862275592,6.90332862275592,-183.59616631,-6.11987221033333,Al,Bi,O,0.517672269916667,,,
mp-23080,AlBiO3,Cubic,Pm-3m,221,5,54.3191115073479,8.68068144742511,8.6806838526175,-32.57968332,-6.515936664,Al,Bi,O,0.121609234250002,,,
mp-551918,AlBiO3,Trigonal,R3c,161,10,113.675213729599,8.29603724562296,8.29602835865707,-65.83976018,-6.583976018,Al,Bi,O,0.0533350642500006,131.410649111323,124.832170124857,128.12140961809
mp-1413511,AlBiO3,Cubic,Pm-3m,221,5,78.1054911143712,6.03705189961594,6.03705189961594,-24.85563856,-4.971127712,Al,Bi,O,1.66502289425,,,
mp-1344602,AlBiO3,Orthorhombic,Pnma,62,20,273.845264296274,6.88749399722764,6.88749399722764,-128.05509815,-6.4027549075,Al,Bi,O,0.234789572750001,,,
mp-1392353,AlBiO3,Hexagonal,P6_3/mmc,194,10,147.971035599454,6.3732324585311,6.3732324585311,-57.71946843,-5.771946843,Al,Bi,O,0.865597637250001,,,
mp-775763,AlBiO3,Monoclinic,P2_1/c,14,20,284.084455668852,6.63924961881186,6.63925038929132,-131.16942604,-6.558471302,Al,Bi,O,0.0782941787500002,,,
mp-8110,AlBO3,Trigonal,R-3c,167,10,81.4698638222838,3.49721642615052,3.49721646811567,-77.58874792,-7.758874792,Al,B,O,0.0328901956250132,210.349527363001,198.684990277203,204.517258820102
mp-1435808,AlCoO3,Cubic,Pm-3m,221,5,50.4267135483825,4.40971941493784,4.40971941493784,-26.90345665,-5.38069133,Al,Co,O,1.32827165381818,,,
mp-1386773,AlCoO3,Hexagonal,P6_3/mmc,194,10,96.9199124503758,4.58868878734629,4.58868878734629,-63.92587614,-6.392587614,Al,Co,O,0.28680172181818,,,
mp-1348445,AlCoO3,Hexagonal,P6_3cm,185,30,293.43460356045,4.54685960826025,4.54685960826025,-192.73967014,-6.42465567133333,Al,Co,O,0.269171609151512,,,
mp-1378752,AlCoO3,Orthorhombic,Pnma,62,20,171.353212613181,5.19086054762903,5.19086054762903,-131.28059803,-6.5640299015,Al,Co,O,0.21236072431818,,,
mp-1404938,AlCoO3,Triclinic,P-1,2,10,93.2390921068111,4.76983747355832,4.76983747355832,-16.71446398,-1.671446398,Al,Co,O,5.10494422781818,,,
mp-1248478,AlCoO3,Triclinic,P1,1,30,300.835415978238,4.43500291432238,4.43935661237273,-194.47733425,-6.48257780833333,Al,Co,O,0.281046083484846,,,
mp-776216,AlCoO3,Triclinic,P-1,2,10,93.2390744041256,4.76983837917577,4.76983684965077,-66.28082606,-6.628082606,Al,Co,O,0.13517791681818,84.0068112320121,69.4743092110532,76.7405602215327
mp-1178576,AlCoO3,Trigonal,R-3,148,10,88.0214769023662,5.05257729343631,5.04767521030208,-66.78819372,-6.678819372,Al,Co,O,0.0617001338181797,,,
mp-756947,AlCoO3,Monoclinic,C2/c,15,20,199.734015583365,4.45327566496553,4.39658586706044,-139.61480458,-6.980740229,Al,Co,O,0.13198388231818,,,
mp-754022,AlCoO3,Triclinic,P1,1,10,93.4038295935536,4.76142485235228,4.76142518983074,-69.59698909,-6.959698909,Al,Co,O,0.14641343081818,,,
mp-1385937,AlCrO3,Hexagonal,P6_3/mmc,194,10,102.805308339893,4.10189598016658,4.10189598016658,-69.06488385,-6.906488385,Al,Cr,O,0.374911019500002,,,
mp-1345463,AlCrO3,Orthorhombic,Pnma,62,20,191.020295880122,4.41520288800972,4.41520288800972,-147.14399839,-7.3571999195,Al,Cr,O,0.176285461000003,,,
mp-1383064,AlCrO3,Tetragonal,P4/mmm,123,5,54.5682964191782,3.863934818304,3.863934818304,-31.95156387,-6.390312774,Al,Cr,O,1.3427578775,,,
mp-1251690,AlCrO3,Hexagonal,P6_3cm,185,30,306.474569800616,4.12787933393825,4.12996952290708,-221.00932395,-7.366977465,Al,Cr,O,0.352142375500003,,,
mp-776172,AlCuO3,Monoclinic,P2_1/c,14,20,198.428760625129,4.6369770178525,4.63697651078505,-123.50193645,-6.1750968225,Al,Cu,O,0.11748381154545,,,
mp-1504314,AlCuO3,Cubic,Pm-3m,221,5,50.6180164169159,4.54437800921111,4.54437800921111,-24.872398,-4.9744796,Al,Cu,O,1.32438792954545,,,
mp-1347317,AlCuO3,Orthorhombic,Pnma,62,20,193.451910534151,4.75627043516454,4.75627043516454,-121.66310403,-6.0831552015,Al,Cu,O,0.21573284804545,,,
mp-1412082,AlCuO3,Hexagonal,P6_3/mmc,194,10,97.0016652518258,4.7427515822073,4.7427515822073,-60.63411387,-6.063411387,Al,Cu,O,0.235508398545448,,,
mp-1253258,AlCuO3,Hexagonal,P6_3cm,185,30,289.827390141215,4.7620219861796,4.75314853507947,-182.86147874,-6.09538262466667,Al,Cu,O,0.200237262212116,,,
mp-1178579,AlCuO3,Trigonal,R-3,148,10,93.9211784595088,4.89830737748012,4.89943629631307,-61.42922385,-6.142922385,Al,Cu,O,0.14355884054545,,,
mp-1178577,AlFeO3,Trigonal,R-3,148,20,193.125209736042,4.49945586327027,4.49945571149891,-70.78369597,-7.078369597,Al,Fe,O,0.0325528524999914,,,
mp-1254277,AlFeO3,Orthorhombic,Pnma,62,20,179.403601412595,4.84359483561141,4.46357018331295,-135.4507619,-6.772538095,Al,Fe,O,0.280233170999993,,,
mp-1259818,AlFeO3,Monoclinic,P2_1/c,14,20,197.908728112373,4.39070255051478,4.39070281773228,-137.57639215,-6.8788196075,Al,Fe,O,0.210626288499993,,,
mp-776154,AlFeO3,Orthorhombic,Pnma,62,20,182.983912439465,4.74882379389283,4.70747469606122,-148.42487925,-7.4212439625,Al,Fe,O,0.0803160834999925,,,
mp-1421498,AlFeO3,Cubic,Pm-3m,221,5,54.9163282915012,3.95582873221065,3.95582873221065,-28.55511102,-5.711022204,Al,Fe,O,1.40429498749999,,,
mp-1398131,AlFeO3,Hexagonal,P6_3/mmc,194,10,105.278282760376,4.12695920995393,4.12695920995393,-62.41436439,-6.241436439,Al,Fe,O,0.265544550499992,,,
mp-21216,AlFeO3,Orthorhombic,Pna2_1,33,40,410.041045149814,4.23839694865008,4.23475134314416,-298.12399293,-7.45309982325,Al,Fe,O,0.0439558349999922,178.338568360045,178.013094952763,178.175831656404
mp-1264966,AlFeO3,Triclinic,P-1,2,20,197.558695090921,4.3984819645231,4.39848189406428,-137.58539199,-6.8792695995,Al,Fe,O,0.236047591999992,,,
mp-756686,AlGaO3,Orthorhombic,Pnma,62,20,182.422401772819,5.26875094624723,5.26875060486634,-133.01149829,-6.6505749145,Al,Ga,O,0.107533476999999,,,
mp-772187,AlGaO3,Orthorhombic,Pna2_1,33,40,394.628227809997,4.87110720533653,4.87110740122886,-269.18789326,-6.7296973315,Al,Ga,O,0.0287432352499994,,,
mp-772898,AlGaO3,Orthorhombic,Pna2_1,33,40,399.149558977076,4.81593017123906,4.81593018792068,-269.2196553,-6.7304913825,Al,Ga,O,0.0276705999999995,,,
mp-1178550,AlInO3,Orthorhombic,Pnma,62,20,202.9318362183,6.21226448389498,6.21226477449055,-130.0900272,-6.50450136,Al,In,O,0.0630337659999958,,,
mp-1183160,AlInO3,Cubic,Pm-3m,221,5,51.2582614436839,6.14860026112864,6.14859936813073,-30.49931541,-6.099863082,Al,In,O,0.467804547499997,,,
mp-754157,AlInO3,Hexagonal,P6_3/mmc,194,10,112.284476540409,5.61371561605332,5.61381545477363,-65.32906714,-6.532906714,Al,In,O,0.0346600674999964,184.266701249737,184.225180226072,184.245940737904
mp-504482,AlInS3,Hexagonal,P6_1,169,30,713.388452870635,3.32384882928073,3.24313544538805,-137.89377581,-4.59645919366667,Al,In,S,0,,,
mp-862787,AlInSe3,Hexagonal,P6_1,169,30,815.538750272251,4.62623389035123,4.5334506686425,-122.70831051,-4.090277017,Al,In,Se,0,,,
mp-1183133,AlIrO3,Cubic,Pm-3m,221,5,49.1923229250551,9.01950947893586,9.01951132834798,-31.36678402,-6.273356804,Al,Ir,O,1.08264807004545,,,
mp-1246835,AlMoN3,Triclinic,P-1,2,20,297.448373911021,3.68322113855295,3.68322107955182,-167.11865359,-8.3559326795,Al,Mo,N,0.203797401733334,,,
mp-1433892,AlMoO3,Cubic,Pm-3m,221,5,64.3713238263705,4.40908911495914,4.40908911495914,-31.1880985,-6.2376197,Al,Mo,O,1.21977742975,,,
mp-1389151,AlMoO3,Hexagonal,P6_3/mmc,194,10,114.377313977112,4.96285309261861,4.96285309261861,-66.78225216,-6.678225216,Al,Mo,O,0.580191703750002,,,
mp-1248370,AlMoO3,Hexagonal,P6_3cm,185,30,320.8516001512,5.3074799015734,5.30938787182986,-209.79878526,-6.993292842,Al,Mo,O,0.463632203750001,,,
mp-1373731,AlMoO3,Orthorhombic,Pnma,62,20,222.552713371212,5.10115376980297,5.10115376980297,-142.92578452,-7.146289226,Al,Mo,O,0.176259155250001,,,
mp-1416557,AlNiO3,Cubic,Pm-3m,221,5,49.0087695708966,4.529178568322,4.529178568322,-24.24002608,-4.848005216,Al,Ni,O,1.36156986597727,,,
mp-1400395,AlNiO3,Hexagonal,P6_3/mmc,194,10,93.4651059583781,4.74978263864985,4.74978263864985,-57.89163836,-5.789163836,Al,Ni,O,0.420411245977272,,,
mp-1333178,AlNiO3,Hexagonal,P6_3cm,185,30,279.636512067545,4.76267137991023,4.76267137991023,-173.99074438,-5.79969147933333,Al,Ni,O,0.40988360264394,,,
mp-1376903,AlNiO3,Orthorhombic,Pnma,62,20,178.301486224649,4.9796437147062,4.97964360968413,-116.49232237,-5.8246161185,Al,Ni,O,0.242979411477274,,,
mp-1183176,AlNiO3,Cubic,Pm-3m,221,5,48.9420669417644,4.53535133823537,4.53534977771523,-26.61162424,-5.322324848,Al,Ni,O,0.869599869977272,,,
mp-1183154,AlPbO3,Cubic,Pm-3m,221,5,56.3792677148114,8.31104231645027,8.31104133801127,-31.1949079,-6.23898158,Al,Pb,O,0.256270870590908,,,
mp-776116,AlPdO3,Monoclinic,C2/c,15,20,229.89356275877,5.24105762687064,5.24105683237379,-125.46022977,-6.2730114885,Al,Pd,O,0.193575573272732,,,
mp-1178574,AlPdO3,Hexagonal,P6_3/mmc,194,10,106.526868563887,5.65531225459195,5.65528578547617,-63.12428395,-6.312428395,Al,Pd,O,0.154439158272734,,,
mp-1178547,AlRhO3,Hexagonal,P6_3/mmc,194,10,102.224160356065,5.77916975865357,5.77915186157785,-69.98803657,-6.998803657,Al,Rh,O,0.0432350841363585,,,
mp-1371447,AlSbO3,Orthorhombic,Pnma,62,20,259.286945343354,5.03988384706921,5.03988384706921,-127.61536349,-6.3807681745,Al,Sb,O,0.339868097500005,,,
mp-1374707,AlSbO3,Hexagonal,P6_3cm,185,30,366.000121214001,5.35563792953424,5.35563792953424,-189.43597221,-6.314532407,Al,Sb,O,0.406103865000004,,,
mp-1261047,AlSbO3,Monoclinic,P2_1,4,20,324.762469332995,4.02379034214076,4.02379023960873,-133.14922839,-6.6574614195,Al,Sb,O,0.061852403500005,,,
mp-1183134,AlSbO3,Cubic,Pm-3m,221,5,52.9015717034634,6.17550691554565,6.17550721143649,-32.00448998,-6.400897996,Al,Sb,O,0.319599526000005,,,
mp-1384267,AlSbO3,Hexagonal,P6_3/mmc,194,10,136.034162885659,4.80311731947172,4.80311731947172,-59.18608508,-5.918608508,Al,Sb,O,0.802027764000004,,,
mp-1421511,AlSbO3,Cubic,Pm-3m,221,5,66.5165215902092,4.91147182816696,4.91147182816696,-27.01062187,-5.402124374,Al,Sb,O,1.318511898,,,
mp-1079481,AlSBr3,Trigonal,P-3m1,164,10,379.935311177417,2.61149838001744,2.6114852031493,-29.90714662,-2.990714662,Al,S,Br,0.361060012875001,,,
mp-1183132,AlSiO3,Cubic,Pm-3m,221,5,45.0806898724334,3.79638944275349,3.79638832591093,-32.72642209,-6.545284418,Al,Si,O,1.03579189274999,,,
mp-1406914,AlSnO3,Hexagonal,P6_3/mmc,194,10,127.220527674065,5.0562497047465,5.0562497047465,-61.21294612,-6.121294612,Al,Sn,O,0.658372996125003,,,
mp-1248301,AlSnO3,Hexagonal,P6_3cm,185,30,355.833944835804,5.42324950858617,5.42160168191102,-190.47970412,-6.34932347066667,Al,Sn,O,0.429956209458337,,,
mp-1340379,AlSnO3,Monoclinic,P2_1/c,14,20,255.899703940603,5.02742868072243,5.02742868072243,-130.88435652,-6.544217826,Al,Sn,O,0.235436242125004,,,
mp-1426094,AlSnO3,Cubic,Pm-3m,221,5,65.7711151149831,4.89013113404812,4.89013113404812,-27.30519452,-5.461038904,Al,Sn,O,1.318630856125,,,
mp-768539,AlTlO3,Orthorhombic,Pnma,62,20,214.282801917419,8.65945815918834,8.65945853900118,-119.36130067,-5.9680650335,Al,Tl,O,0.0889291161363639,,,
mp-765647,AlVO3,Monoclinic,Cm,8,40,430.764942728713,3.88327118145536,4.01397910208228,-323.23251724,-8.080812931,Al,V,O,0.0887325961250003,,,
mp-1395974,AlVO3,Cubic,Pm-3m,221,5,55.8736573885355,3.74232054572579,3.74232054572579,-32.67224353,-6.534448706,Al,V,O,1.228573627625,,,
mp-1248251,AlVO3,Orthorhombic,Pnma,62,20,200.081439172424,4.18024054354719,4.1898472774668,-152.0969393,-7.604846965,Al,V,O,0.151617486125,,,
mp-1178549,AlVO3,Trigonal,R-3,148,20,186.112775262673,4.49398781389074,4.29109098840547,-77.30060184,-7.730060184,Al,V,O,0.0198158706250009,,,
mp-802021,AlVO3,Triclinic,P1,1,40,430.764722837819,3.88327316373461,3.88327310152887,-227.18599056,-5.679649764,Al,V,O,2.083372569625,,,
mp-1183128,AlVO3,Cubic,Pm-3m,221,5,48.2482223317943,4.33377906800455,4.33377992712299,-35.22829334,-7.045658668,Al,V,O,0.709336499625001,,,
mp-1384488,AlVO3,Hexagonal,P6_3/mmc,194,10,105.44571488894,3.96596744078582,3.96596744078582,-72.44701302,-7.244701302,Al,V,O,0.327603013625001,,,
mp-756082,AlVO3,Orthorhombic,Pnma,62,20,184.739502091661,4.52739416621819,4.58359959937823,-160.49284486,-8.024642243,Al,V,O,0.0864430801250009,,,