material_id,formula_pretty,crystal_system,space_group,number,nsites,volume,density,density,energy,energy_per_atom,A_site,B_site,X_site,energy_above_hull,k_voigt,k_reuss,k_vrh
mp-975564,PuBO3,Cubic,Pm-3m,221,5,45.2299275746952,11.1171194226543,11.1171213039083,-45.43707168,-9.087414336,Pu,B,O,0.786705553666664,,,
mp-1209736,PuCrO3,Orthorhombic,Pnma,62,20,240.191579347214,9.51267276546756,9.51267345436524,-195.68605683,-9.7843028415,Pu,Cr,O,0.082013570666664,,,
mp-2647102,PuCuO3,Cubic,Pm-3m,221,5,55.8751430490454,10.5663270246094,10.5663284057255,-41.61810472,-8.323620944,Pu,Cu,O,0.471741008000004,,,
mp-1186662,PuGaO3,Cubic,Pm-3m,221,5,58.1092708234073,10.3365981934759,10.3366013904272,-43.37061779,-8.674123558,Pu,Ga,O,0.2689982405,,,
mp-1186797,PuInO3,Cubic,Pm-3m,221,5,71.4033367597699,9.46082107196941,9.46082386221284,-40.706639,-8.1413278,Pu,In,O,0.656725362666668,,,
mp-975596,PuIrO3,Cubic,Pm-3m,221,5,70.6697726798891,11.377682787854,11.3776798856497,-41.69944685,-8.33988937,Pu,Ir,O,1.3969327675,,,
mp-1186787,PuMgO3,Cubic,Pm-3m,221,5,56.0899631773397,9.36413202536719,9.36413334313108,-42.48950317,-8.497900634,Pu,Mg,O,0.612902516000002,,,
mp-1188081,PuNiO3,Cubic,Pm-3m,221,5,53.9005770034098,10.8039122121387,10.803910065594,-39.99966792,-7.999933584,Pu,Ni,O,0.515832346999996,,,
mp-1186799,PuPbO3,Cubic,Pm-3m,221,5,82.7700158375749,10.0149565599103,10.0149579161899,-43.50713022,-8.701426044,Pu,Pb,O,0.2141319438125,,,
mp-975588,PuPtO3,Cubic,Pm-3m,221,5,66.6542214364564,12.1345505853151,12.1345530037616,-41.16992289,-8.233984578,Pu,Pt,O,0.861694934500006,,,
mp-1186801,PuSbO3,Cubic,Pm-3m,221,5,80.3812302184079,8.54753844099233,8.54753842290423,-41.70681363,-8.341362726,Pu,Sb,O,0.656019841666664,,,
mp-1186812,PuTiO3,Cubic,Pm-3m,221,5,60.1213897273106,9.38699927825284,9.38699776206836,-51.51533073,-10.303066146,Pu,Ti,O,0.0804210210000669,,,
mp-2647162,PuTlO3,Tetragonal,P4/mbm,127,20,325.456710046909,10.1305131803084,10.1305131803084,-169.94581611,-8.4972908055,Pu,Tl,O,0,,,
mp-1209729,PuVO3,Orthorhombic,Pnma,62,20,243.511237640706,9.35422569989666,9.35422500585633,-197.1590662,-9.85795331,Pu,V,O,0.0479939560833298,,,
mp-975463,RbAcO3,Cubic,Pm-3m,221,5,99.6493992463073,6.00673842199021,6.00673712083458,-29.01230235,-5.80246047,Rb,Ac,O,0.180333471000001,,,
mp-998226,RbAgBr3,Tetragonal,P4mm,99,5,161.605274768667,4.44968843215271,4.44966702762272,-13.16133206,-2.632266412,Rb,Ag,Br,0,,,
mp-998201,RbAgCl3,Monoclinic,Pm,6,5,137.97069477505,3.60696346695994,3.60696434342532,-14.59814844,-2.919629688,Rb,Ag,Cl,0,31.8827931067584,31.8827846239949,31.8827888653767
mp-1975771,RbAgCl3,Cubic,Pm-3m,221,5,131.615752794483,3.78112228208557,3.78263396669093,-59.84818105,-11.96963621,Rb,Ag,Cl,0.00196815400000139,,,
mp-7767,RbAgF3,Tetragonal,I4/mcm,140,10,165.150166112841,5.03402161698113,4.74450297747647,-37.63462595,-3.763462595,Rb,Ag,F,0,,,
mp-1055491,RbAgF3,Cubic,Pm-3m,221,5,82.1683324390747,5.05894108826232,4.77028782889763,-18.8130401,-3.76260802,Rb,Ag,F,0.00144316299999936,,,
mp-867844,RbAgF3,Orthorhombic,Cmmm,65,5,77.9275168318836,5.33424867145206,5.33424746085171,-17.55564562,-3.511129124,Rb,Ag,F,0.113237456999999,,,
mp-975421,RbAgO3,Cubic,Pm-3m,221,5,77.0799069219217,5.19908343444931,5.19908489044357,-18.86031356,-3.772062712,Rb,Ag,O,0.353457602250001,,,
mp-975427,RbAlO3,Cubic,Pm-3m,221,5,61.3527230205371,4.34258485798466,4.34258467657572,-27.13368156,-5.426736312,Rb,Al,O,0.401450584555555,,,
mp-975425,RbAsO3,Cubic,Pm-3m,221,5,61.1357906838827,5.66011737026965,5.66011771063813,-25.23441378,-5.046882756,Rb,As,O,0.205426453599999,,,
mp-27300,RbAuBr3,Monoclinic,C2/m,12,10,341.648676012449,5.07564937366388,4.75205140793292,-26.95642512,-2.695642512,Rb,Au,Br,0,,,
mp-1110999,RbAuBr3,Cubic,Pm-3m,221,5,160.722101625561,5.39468085246806,5.39468042352128,-26.50163077,-2.650163077,Rb,Au,Br,0.0462973930000001,,,
mp-1110791,RbAuCl3,Cubic,Pm-3m,221,5,137.670494001237,4.68950578512291,4.68950445020036,-29.10509819,-2.910509819,Rb,Au,Cl,0.0537029372500006,,,
mp-1111644,RbAuF3,Cubic,Pm-3m,221,5,92.002908043433,6.12628543609505,6.12628409280455,-36.52140906,-3.652140906,Rb,Au,F,0.126595740666666,,,
mp-568666,RbAuI3,Monoclinic,C2/m,12,10,421.046383797299,5.23069588688669,5.03316225993738,-24.45852924,-2.445852924,Rb,Au,I,0,,,
mp-975405,RbAuO3,Cubic,Pm-3m,221,5,75.0083593739352,7.31513386349532,7.31513354577142,-19.59250203,-3.918500406,Rb,Au,O,0.384545427249999,,,
mp-1219638,RbBaN3,Orthorhombic,Fddd,70,20,647.752109244246,2.71545537616745,2.71545524877347,-81.26057386,-4.063028693,Rb,Ba,N,1.86615096883333,,,
mp-975387,RbBaO3,Cubic,Pm-3m,221,5,124.639222651743,3.60771148836691,3.60771225392658,-22.01270822,-4.402541644,Rb,Ba,O,0.515827346000001,,,
mp-975031,RbBeH3,Monoclinic,P2_1/c,14,20,391.336747108043,1.65493144775724,1.6549315224345,-61.27165808,-3.063582904,Rb,Be,H,0.00148719516666551,,,
mp-1197886,RbBeN3,Orthorhombic,Pbca,61,80,1799.3819182783,2.01548068436283,2.01548058167687,-392.51549655,-4.906443706875,Rb,Be,N,1.51641482915278,,,
mp-975394,RbBeO3,Cubic,Pm-3m,221,5,58.4627991258321,4.04685699088612,4.04685837591226,-22.73814031,-4.547628062,Rb,Be,O,0.775926794999998,,,
mp-1173046,RbBiF3,Tetragonal,P4/nmm,129,10,234.257975913621,4.98241743158487,4.98241832077694,-41.46697605,-4.146697605,Rb,Bi,F,0.384605697733334,,,
mp-677028,RbBiF3,Triclinic,P1,1,10,221.803841885177,5.26217676285351,5.35233299736989,-43.76442335,-4.376442335,Rb,Bi,F,0.151146986733335,,,
mp-975384,RbBiO3,Cubic,Pm-3m,221,5,77.2990855865159,7.35643405225126,6.97925168111447,-24.87204264,-4.974408528,Rb,Bi,O,0,,,
mp-975385,RbBO3,Cubic,Pm-3m,221,5,50.393880708204,4.75410092544918,4.7540998453632,-23.42565467,-4.685130934,Rb,B,O,1.49972109358333,,,
mp-28872,RbBrO3,Trigonal,R3m,160,5,88.9175851758495,3.98469234111268,3.60691825232846,-20.63320316,-4.126640632,Rb,Br,O,0,16.5047649262231,13.931693721085,15.218229323654
mp-9047,RbBS3,Monoclinic,P2_1/c,14,20,479.128173987363,2.66826524966895,2.55809889036918,-94.5337444,-4.72668722,Rb,B,S,0,,,
mp-10552,RbBSe3,Monoclinic,P2_1/c,14,20,579.415786926811,3.81917935454152,3.81917928515423,-83.52513097,-4.1762565485,Rb,B,Se,0.00214895201666465,,,
mp-1209238,RbCaBr3,Orthorhombic,Pnma,62,20,704.514619733743,3.44364661451365,3.35501152128297,-70.86138967,-3.5430694835,Rb,Ca,Br,0,,,
mp-998198,RbCaBr3,Monoclinic,Cm,8,5,189.335457083707,3.20344036781351,3.20344308873412,-17.59421377,-3.518842754,Rb,Ca,Br,0.0241587299999999,,,
mp-998536,RbCaBr3,Orthorhombic,Pnma,62,20,682.950119687372,3.55238152126257,3.40267095088128,-70.84584349,-3.5422921745,Rb,Ca,Br,0.00078246750000055,,,
mp-1209227,RbCaBr3,Cubic,Pm-3m,221,5,188.792242959777,3.21265766416892,3.2126571086883,-17.59663499,-3.519326998,Rb,Ca,Br,0.0236615199999997,,,
mp-998324,RbCaCl3,Trigonal,R3c,161,10,305.22319821812,2.52331397076094,2.44898691711345,-39.51124788,-3.951124788,Rb,Ca,Cl,0,,,
mp-3654,RbCaF3,Cubic,Pm-3m,221,5,88.3761182376321,3.42984602336079,3.28866580557854,-25.92665528,-5.185331056,Rb,Ca,F,0,45.8646336871634,45.8646336871634,45.8646336871634
mp-23949,RbCaH3,Cubic,Pm-3m,221,5,92.4050541102869,2.3104242386256,2.27495747062025,-15.03269535,-3.00653907,Rb,Ca,H,0.0179719860000005,,,
mp-998325,RbCaI3,Monoclinic,Cm,8,5,239.404488467045,3.51147633619566,3.51148015644782,-15.26708201,-3.053416402,Rb,Ca,I,0.0459072859999998,,,
mp-998592,RbCaI3,Orthorhombic,Pnma,62,20,853.738240815522,3.93873979559834,3.82576796274055,-61.98540378,-3.099270189,Rb,Ca,I,0,,,
mp-975382,RbCaO3,Cubic,Pm-3m,221,5,98.3951098459538,2.9287694502826,2.92876987916427,-23.1726457,-4.63452914,Rb,Ca,O,0.421763651999998,,,
mp-27400,RbCdBr3,Orthorhombic,Pnma,62,20,640.66126189271,4.53679135484508,4.30501384471408,-52.20435275,-2.6102176375,Rb,Cd,Br,0,,,
mp-23390,RbCdCl3,Orthorhombic,Pnma,62,20,551.859851035517,3.66179022799703,3.47753274142574,-58.97502849,-2.9487514245,Rb,Cd,Cl,0,,,
mp-6951,RbCdF3,Cubic,Pm-3m,221,5,86.6431336739982,4.88472925730288,4.63542699989657,-19.77858812,-3.955717624,Rb,Cd,F,0,,,
mp-1209203,RbCdN3,Cubic,Pm-3m,221,5,96.5553877243037,4.12573036961765,4.12573095103015,-17.54159444,-3.508318888,Rb,Cd,N,1.987627849,,,
mp-975380,RbCdO3,Cubic,Pm-3m,221,5,89.0575360540558,4.5845459258,4.5845458215623,-18.31065711,-3.662131422,Rb,Cd,O,0.403003569999998,,,
mp-23011,RbClO3,Trigonal,R3m,160,5,95.6428246911321,2.93275109237769,2.93275052833135,-21.30351033,-4.260702066,Rb,Cl,O,0.0651711139999982,,,
mp-31271,RbCO3,Monoclinic,P2_1/c,14,40,665.190782016302,2.9052686857483,2.90526860750621,-258.05479591,-6.45136989775,Rb,C,O,0.0569813793750003,,,
mp-1206319,RbCoBr3,Hexagonal,P6_3/mmc,194,10,298.403859428193,4.27497576880179,4.21972838797477,-34.94738005,-3.494738005,Rb,Co,Br,0.0162176839999999,,,
mp-1209412,RbCoBr3,Hexagonal,P6_3cm,185,30,919.670457112146,4.16128165857861,4.16128225803343,-104.85299701,-3.49509990033333,Rb,Co,Br,0.195431540666667,,,
mp-1209578,RbCoBr3,Trigonal,P3c1,158,30,902.003151036592,4.2427876229915,4.24278763649268,-104.83355509,-3.49445183633333,Rb,Co,Br,0.064049351,,,
mp-1209410,RbCoBr3,Trigonal,P-3c1,165,30,918.654678447361,4.16588288820942,4.16588307896093,-104.84757942,-3.494919314,Rb,Co,Br,0.150671998,,,
mp-27707,RbCoCl3,Hexagonal,P6_3/mmc,194,10,253.434323167383,3.2860329479753,3.18286254598127,-38.69320749,-3.869320749,Rb,Co,Cl,0.00214400725000097,16.6327448427444,15.7843034552012,16.2085241489728
mp-541814,RbCoF3,Hexagonal,P6_3/mmc,194,30,461.000139365111,4.35261819309432,4.45659558797863,-147.13496166,-4.904498722,Rb,Co,F,0,,,
mp-30027,RbCrCl3,Monoclinic,C2/c,15,20,545.850179221741,2.96694929263534,2.82552063518772,-91.98997714,-4.599498857,Rb,Cr,Cl,0.0195885014999977,,,
mp-568864,RbCrCl3,Monoclinic,C2,5,20,570.423405540088,2.83913631067336,2.83913633525837,-91.95277605,-4.5976388025,Rb,Cr,Cl,0.0215715799999971,,,
mp-568887,RbCrCl3,Monoclinic,C2/m,12,10,277.23493634508,2.92082560819641,2.92082545381765,-45.91267618,-4.591267618,Rb,Cr,Cl,0.0282901049999973,,,
mp-676553,RbCrI3,Monoclinic,C2/m,12,10,396.636862759662,4.33874784453447,4.33874768987884,-38.06016372,-3.806016372,Rb,Cr,I,0.0675368351111114,,,
mp-27442,RbCrI3,Monoclinic,C2,5,20,818.172077955207,4.20671245017876,4.20671182234754,-76.17254948,-3.808627474,Rb,Cr,I,0.0635655726111111,,,
mp-1076360,RbCrO3,Cubic,Pm-3m,221,5,61.4862876311306,5.00871128000501,5.00871097134839,-29.15245741,-5.830491482,Rb,Cr,O,0.50757242991667,,,
mp-998196,RbCuBr3,Cubic,Pm-3m,221,5,136.143774317776,4.7412698842084,4.56255222832673,-14.36453806,-2.872907612,Rb,Cu,Br,0.0139929159999994,,,
mp-23055,RbCuCl3,Orthorhombic,Pbcn,60,20,518.128796172403,3.27375366186694,3.09490021749219,-64.2979409,-3.214897045,Rb,Cu,Cl,0.0197524290000066,,,
mp-1232302,RbCuCl3,Tetragonal,I4/mcm,140,10,243.800848040145,3.47871235359445,3.30779167817066,-32.40846486,-3.240846486,Rb,Cu,Cl,0,,,
mp-568857,RbCuCl3,Monoclinic,C2/c,15,20,536.585969925221,3.16114497742925,3.16114485269159,-64.24188768,-3.212094384,Rb,Cu,Cl,0.0222707280000063,,,
mp-571305,RbCuCl3,Monoclinic,C2,5,20,538.998999521292,3.14699293559841,3.14699287637535,-64.26247894,-3.213123947,Rb,Cu,Cl,0.021911064500006,,,
mp-569526,RbCuCl3,Hexagonal,P6_3/mmc,194,10,257.944740026459,3.28796401045845,3.28796411841926,-31.87937349,-3.187937349,Rb,Cu,Cl,0.0500047510000061,16.5228767141327,16.1775839102534,16.3502303121931
mp-8858,RbCuF3,Tetragonal,I4/mcm,140,10,141.624698480106,4.83088066112181,4.57800451400693,-42.2113544,-4.22113544,Rb,Cu,F,0,,,
mp-554601,RbCuF3,Cubic,Pm-3m,221,5,67.4188464659347,5.07404125766559,4.81680353627858,-21.04004976,-4.208009952,Rb,Cu,F,0.00953046999999962,63.8302086326357,63.8302086326357,63.8302086326357
mp-975364,RbCuO3,Cubic,Pm-3m,221,5,66.2368780078014,4.93903294401146,4.93903421986989,-21.1354722,-4.22709444,Rb,Cu,O,0.426741508250001,,,
mp-1219609,RbCuS3,Orthorhombic,Pmm2,25,5,114.992865812773,3.54090481175639,3.54090422534595,-18.08436615,-3.61687323,Rb,Cu,S,0.365584340714283,,,
mp-1209279,RbDyBr3,Orthorhombic,Pnma,62,20,713.998199868042,4.53676975679401,4.53676967544714,-73.26108113,-3.6630540565,Rb,Dy,Br,0.128711497833333,,,
mp-1209272,RbDyI3,Orthorhombic,Pnma,62,20,860.516777288414,4.85266406045894,4.85266349423446,-64.82610929,-3.2413054645,Rb,Dy,I,0.125223149833333,,,
mp-1206194,RbDyI3,Orthorhombic,Cmcm,63,10,419.803033089553,4.97352152012519,4.97352239464294,-32.57712969,-3.257712969,Rb,Dy,I,0.0964136423333324,,,
mp-975386,RbDyO3,Cubic,Pm-3m,221,5,92.2931977402398,5.32501980014349,5.32501913526281,-29.81610448,-5.963220896,Rb,Dy,O,0.255247988,,,
mp-975361,RbErO3,Cubic,Pm-3m,221,5,90.775709490357,5.50109289816492,5.50109505519082,-29.92793339,-5.985586678,Rb,Er,O,0.248216991,,,
mp-1206801,RbEuCl3,Cubic,Pm-3m,221,5,180.92054600924,3.15540753513154,3.15540825449307,-27.70980315,-5.54196063,Rb,Eu,Cl,0.0336697767500018,,,
mp-1206560,RbFeCl3,Hexagonal,P6_3/mmc,194,10,247.766504253257,3.31980871130796,3.31980853112612,-40.24769642,-4.024769642,Rb,Fe,Cl,0.103099929,,,
mp-1206518,RbFeCl3,Cubic,Pm-3m,221,5,119.832066667211,3.43204211554897,3.31199466359742,-20.87673117,-4.175346234,Rb,Fe,Cl,0.0707030250000003,,,
mp-554465,RbFeF3,Cubic,Pm-3m,221,5,75.1885846294322,4.37963021625474,4.37962874526239,-23.97654224,-4.795308448,Rb,Fe,F,0.2661429585,,,
mp-975322,RbFeO3,Cubic,Pm-3m,221,5,66.2059422506789,4.74818876599991,4.74818953501341,-25.80382313,-5.160764626,Rb,Fe,O,0.266845015666669,,,
mp-975308,RbGdO3,Cubic,Pm-3m,221,5,89.4388218566224,5.39749143900358,5.39749138874973,-39.37772761,-7.875545522,Rb,Gd,O,0.176935758499999,,,
mp-1120721,RbGeBr3,Monoclinic,P2_1/m,11,10,359.329599984922,3.67682105451217,3.30252873540156,-31.91537941,-3.191537941,Rb,Ge,Br,0.00698803100000012,,,
mp-28558,RbGeBr3,Orthorhombic,Pna2_1,33,20,712.820034973296,3.70694024834331,3.55739534582526,-63.99016968,-3.199508484,Rb,Ge,Br,0,,,
mp-1120729,RbGeCl3,Orthorhombic,Pna2_1,33,20,632.455719996522,2.7774747817672,2.69136265863563,-70.8924298,-3.54462149,Rb,Ge,Cl,0.00748500100000005,,,
mp-27369,RbGeCl3,Monoclinic,P2_1/m,11,10,311.870633081468,2.81627961491309,2.58909720602699,-35.51582091,-3.551582091,Rb,Ge,Cl,0,,,
mp-571458,RbGeI3,Cubic,Pm-3m,221,5,206.905561846849,4.32435774626475,4.23414835525606,-14.08319473,-2.816638946,Rb,Ge,I,0.0129240059999995,18.0539675368771,18.0539675368771,18.0539675368771
mp-567855,RbGeI3,Orthorhombic,P2_12_12_1,19,20,816.722015254112,4.38207200201062,4.34685088924308,-56.7609914,-2.83804957,Rb,Ge,I,0.00459930299999956,,,
mp-1186885,RbGeO3,Cubic,Pm-3m,221,5,61.5653499893235,5.55908583188451,5.55908527824199,-25.81348361,-5.162696722,Rb,Ge,O,0.419799458291665,,,
mp-975296,RbHoO3,Cubic,Pm-3m,221,5,90.9874098075707,5.4457946185918,5.4457934416487,-29.85686976,-5.971373952,Rb,Ho,O,0.251479937875,,,
mp-998800,RbInBr3,Trigonal,R3c,161,10,374.077374273357,3.90632305702693,3.90632268012745,-28.97146436,-2.897146436,Rb,In,Br,0.0348615715000014,,,
mp-998194,RbInBr3,Monoclinic,Cm,8,5,188.62325637145,3.87350717071302,3.87351441585523,-14.4614184,-2.89228368,Rb,In,Br,0.0413263335000016,,,
mp-1110737,RbInBr3,Cubic,Fm-3m,225,10,375.471126154789,3.89182275399173,3.73415995492857,-29.08449021,-2.908449021,Rb,In,Br,0.0251928205000014,,,
mp-998753,RbInCl3,Trigonal,R3c,161,10,322.541652289104,3.15739481307881,3.15739469313033,-32.23631885,-3.223631885,Rb,In,Cl,0.032470698,,,
mp-998195,RbInCl3,Monoclinic,Cm,8,5,162.102582584115,3.1411940627505,3.14119413915627,-16.10349348,-3.220698696,Rb,In,Cl,0.0364733689999999,,,
mp-1114001,RbInCl3,Cubic,Fm-3m,225,10,327.423143839109,3.11032179337912,2.98535286047348,-32.57307094,-3.257307094,Rb,In,Cl,0,,,
mp-998204,RbInCl3,Tetragonal,P4mm,99,5,162.103472216725,3.14117682370784,3.14114307082638,-16.10517683,-3.221035366,Rb,In,Cl,0.0364649369999994,,,
mp-1110662,RbInF3,Cubic,Fm-3m,225,10,197.675754583001,4.32248424634904,4.08678335809128,-43.49619203,-4.349619203,Rb,In,F,0.00866199073808804,,,
mp-1147705,RbInH3,Cubic,Fm-3m,225,10,173.252583708478,3.89724135016267,3.89724181620926,-27.26160856,-2.726160856,Rb,In,H,0.0495066042500003,,,
mp-1114161,RbInI3,Cubic,Fm-3m,225,10,478.749116026537,4.03038607726749,4.03038525319809,-25.33752197,-2.533752197,Rb,In,I,0.0563835451666659,,,
mp-975299,RbInO3,Cubic,Pm-3m,221,5,82.5887320345404,4.99202822776463,4.99202924825902,-22.77131146,-4.554262292,Rb,In,O,0.293220447666675,,,
mp-1179783,RbIO3,Monoclinic,Cm,8,5,183.547452788802,2.35555073445498,2.35555018726415,-19.18662082,-3.837324164,Rb,I,O,0.99360821,,,
mp-27193,RbIO3,Trigonal,R3m,160,5,92.3005840532074,4.68421019930674,4.36406989476592,-22.12758622,-4.425517244,Rb,I,O,0,,,
mp-975284,RbIrO3,Cubic,Pm-3m,221,5,64.442761121958,8.39208834959764,8.39208790118476,-28.57431986,-5.714863972,Rb,Ir,O,0.04431511900001,,,
mp-975291,RbLiO3,Cubic,Pm-3m,221,5,73.0027669777618,3.19373248955247,3.19373317198801,-19.15092625,-3.83018525,Rb,Li,O,0.546886913000002,,,
mp-662499,RbMgCl3,Hexagonal,P6_3/mmc,194,30,767.700462005082,2.80496351270036,2.70858205834387,-106.07054417,-3.53568480566667,Rb,Mg,Cl,0.00424358666666613,,,
mp-27208,RbMgCl3,Hexagonal,P6_3/mmc,194,20,517.507435445248,2.77403007456923,2.65942782142175,-70.7974982,-3.53987491,Rb,Mg,Cl,0,,,
mp-559523,RbMgF3,Hexagonal,P6_3/mmc,194,30,593.19698308741,2.80100677746486,2.80100717722074,-129.85469084,-4.32848969466667,Rb,Mg,F,0.563463929333333,,,
mp-8402,RbMgF3,Cubic,Pm-3m,221,5,66.7719143147146,4.14732448278628,3.936140247907,-24.4650737,-4.89301474,Rb,Mg,F,0.00215460399999934,65.2814097273566,65.2814097273566,65.2814097273566
mp-541813,RbMgF3,Hexagonal,P6_3/mmc,194,30,416.376226443363,3.99049865116532,3.77959264091034,-146.84191597,-4.89473053233333,Rb,Mg,F,0,,,
mp-23738,RbMgH3,Hexagonal,P6_3/mmc,194,30,428.665615198867,2.6216685563204,2.56864636293777,-83.32495329,-2.777498443,Rb,Mg,H,0,,,
mp-1186884,RbMgO3,Cubic,Pm-3m,221,5,73.8100948413407,3.54944550118383,3.54944437815747,-22.34933404,-4.469866808,Rb,Mg,O,0.406369915999999,,,
mp-29763,RbMnBr3,Hexagonal,P6_3/mmc,194,10,316.295988408391,3.99120162548073,3.80658644146825,-42.21903765,-4.221903765,Rb,Mn,Br,0.00127109366667089,,,
mp-568231,RbMnBr3,Hexagonal,P6_3cm,185,30,955.539987852555,3.96341674587271,3.803881695367,-126.69512806,-4.22317093533333,Rb,Mn,Br,0,,,
mp-569309,RbMnCl3,Hexagonal,P6_3/mmc,194,30,789.361175969585,3.11464012566371,3.01852313044586,-137.78080713,-4.592693571,Rb,Mn,Cl,0,,,
mp-558749,RbMnF3,Cubic,Pm-3m,221,5,75.8197458311591,4.32330864945513,4.09265222023534,-27.89586539,-5.579173078,Rb,Mn,F,0,,,
mp-975346,RbMnO3,Cubic,Pm-3m,221,5,65.90328141913,4.74714263525506,4.74714478061691,-28.13012145,-5.62602429,Rb,Mn,O,0.379636239083331,,,
mp-975292,RbMoO3,Cubic,Pm-3m,221,5,66.5738652421877,5.72202956410349,5.80645789080215,-31.04764986,-6.209529972,Rb,Mo,O,0.193318935000001,158.99168055867,158.99168055867,158.99168055867
mp-975274,RbNaO3,Cubic,Pm-3m,221,5,92.8192001762903,2.79899973918068,2.79899937906576,-17.61478089,-3.522956178,Rb,Na,O,0.600423636666665,,,
mp-1075911,RbNbO3,Cubic,Pm-3m,221,5,68.8633241759556,5.45864123010882,5.45864258095495,-37.64436937,-7.528873874,Rb,Nb,O,0.082736542000001,,,
mp-3283,RbNbO3,Triclinic,P-1,2,20,354.334644904951,4.24344823171389,4.08857915072483,-152.23824785,-7.6119123925,Rb,Nb,O,0,43.7149366925784,35.1701567736138,39.4425467330961
mp-756063,RbNbO3,Monoclinic,C2/m,12,20,351.069950023412,4.28290921013493,4.28290872298039,-151.7515788,-7.58757894,Rb,Nb,O,0.0243193675000004,,,
mp-27409,RbNiBr3,Hexagonal,P6_3/mmc,194,10,292.060617220569,4.36509688493436,4.23186154307802,-32.53784085,-3.253784085,Rb,Ni,Br,0,17.0780300595516,17.0779023851715,17.0779662223615
mp-23486,RbNiCl3,Hexagonal,P6_3/mmc,194,10,247.980954976057,3.35508490248867,3.24640413501811,-36.15604199,-3.615604199,Rb,Ni,Cl,0,18.1301080729464,17.2914649060621,17.7107864895042
mp-556488,RbNiF3,Hexagonal,P6_3/mmc,194,30,420.45617693459,4.76665243554868,4.53199158933938,-128.43394372,-4.28113145733333,Rb,Ni,F,0,,,
mp-975373,RbNiO3,Cubic,Pm-3m,221,5,66.5248944679771,4.79652306503116,4.79652327639106,-20.0723373,-4.01446746,Rb,Ni,O,0.419787334999999,,,
mp-975288,RbNpO3,Cubic,Pm-3m,221,5,79.7970001194663,7.70922797756861,7.56999396099745,-42.05399759,-8.410799518,Rb,Np,O,0.0123390589999985,,,