material_id,formula_pretty,crystal_system,space_group,number,nsites,volume,density,density,energy,energy_per_atom,A_site,B_site,X_site,energy_above_hull,k_voigt,k_reuss,k_vrh
mp-17324,ZrSnS3,Orthorhombic,Pnma,62,20,497.942492142101,4.08351704818253,3.99853262876784,-121.78555133,-6.0892775665,Zr,Sn,S,0,,,
mp-1183045,ZrTiO3,Cubic,Pm-3m,221,5,57.4721917811242,5.40555207502935,5.40555177832904,-42.86074024,-8.572148048,Zr,Ti,O,0.721928657000005,,,
mp-1183044,ZrTlO3,Cubic,Pm-3m,221,5,74.7592433509466,7.6321044819858,7.63210359880863,-35.96894407,-7.193788814,Zr,Tl,O,0.234880127333333,,,
mp-1246572,ZrWN3,Triclinic,P-1,2,20,272.960747497167,7.71584251985777,7.71584347123273,-201.05242547,-10.0526212735,Zr,W,N,0.141286391666664,,,
mp-1016883,ZrZnO3,Cubic,Pm-3m,221,5,71.1155048422913,4.7781155825131,4.77811709750138,-33.81902343,-6.763804686,Zr,Zn,O,0.757972090999998,,,