material_id,formula_pretty,crystal_system,space_group,number,nsites,volume,density,density,energy,energy_per_atom,A_site,B_site,X_site,energy_above_hull,k_voigt,k_reuss,k_vrh
mp-1079111,EuTiO3,Tetragonal,I4/mcm,140,10,118.312536524565,6.95666039344492,6.7652566088065,-97.51879803,-9.751879803,Eu,Ti,O,0,,,
mp-1178346,EuTmO3,Orthorhombic,Pnma,62,20,287.911513563575,8.51048841710497,8.51048788460435,-180.85103926,-9.042551963,Eu,Tm,O,0.0969085091250008,,,
mp-1184353,EuTmO3,Cubic,Pm-3m,221,5,77.774376894498,7.87620453924621,7.87620264170806,-43.47240967,-8.694481934,Eu,Tm,O,0.447423555125001,,,
mp-1213318,EuUO3,Orthorhombic,Pnma,62,20,313.722426431614,9.27318275905324,9.27318211578542,-206.62779913,-10.3313899565,Eu,U,O,0.00556318399999611,,,
mp-756315,EuVO3,Cubic,Pm-3m,221,5,56.9943179849843,7.31012161447836,7.02808635150176,-47.94922835,-9.58984567,Eu,V,O,0.0311091045000005,,,
mp-1178351,EuVO3,Orthorhombic,Pnma,62,20,227.915630779332,7.31209868107508,7.05932797387588,-180.94196863,-9.0470984315,Eu,V,O,0,,,
mp-1184400,EuWO3,Cubic,Pm-3m,221,5,68.9290691148841,9.24600542457359,9.24600473525437,-43.61930081,-8.723860162,Eu,W,O,0.147461976250007,,,
mp-1106293,EuZrO3,Orthorhombic,Pnma,62,20,274.217879040441,7.05316608015179,6.81821547247034,-199.23130997,-9.9615654985,Eu,Zr,O,0,,,
mp-1178354,EuZrO3,Cubic,P2_13,198,40,585.782091057117,6.60349393587254,6.60349347494533,-395.17951054,-9.8794877635,Eu,Zr,O,0.0843929492500006,,,
mp-771055,EuZrO3,Cubic,Pm-3m,221,5,73.9469519634314,6.53882341213897,6.5388218922383,-49.35147984,-9.870295968,Eu,Zr,O,0.0933191865000005,,,
mp-1189927,EuZrS3,Orthorhombic,Pnma,62,20,453.97926567402,4.96550193060643,4.79476916274759,-160.53596199,-8.0267980995,Eu,Zr,S,0,,,
mp-1106192,EuZrSe3,Orthorhombic,Pnma,62,20,512.214193101151,6.22529933267277,6.2252982767748,-148.96779831,-7.4483899155,Eu,Zr,Se,0.0247107390000041,,,
mp-1184234,FeAgO3,Cubic,Pm-3m,221,5,57.6191285212119,6.10136007897373,6.10136007601792,-25.21006611,-5.042013222,Fe,Ag,O,0.345822416041667,,,
mp-1184215,FeAsO3,Cubic,Pm-3m,221,5,54.8486971395059,5.41208724389419,5.4120851487455,-27.98897709,-5.597795418,Fe,As,O,0.779932187750045,,,
mp-1193035,FeBiO3,Monoclinic,C2/m,12,30,379.314441749289,8.21675768039103,8.21675648973073,-185.81863552,-6.19395451733333,Fe,Bi,O,0.056411261,,,
mp-655631,FeBiO3,Trigonal,R3,146,5,128.437708992148,4.0444182073211,4.04441873753934,-29.03443323,-5.806886646,Fe,Bi,O,0.440277244999999,,,
mp-654759,FeBiO3,Trigonal,R3,146,5,119.280483791378,4.35491031091877,4.3549101155454,-31.36095036,-6.272190072,Fe,Bi,O,0.588621641,,,
mp-1181635,FeBiO3,Tetragonal,P4/mmm,123,5,110.064839019655,4.71954361975391,4.71954337248059,-20.80463812,-4.160927624,Fe,Bi,O,2.103003105,,,
mp-1181670,FeBiO3,Monoclinic,Cc,9,10,517.881485966549,2.00607985738268,2.00608001371649,-48.43731206,-4.843731206,Fe,Bi,O,1.698095645,,,
mp-1181856,FeBiO3,Monoclinic,Cm,8,5,109.193881915783,4.75718785375802,4.75718755436056,-29.15765098,-5.831530196,Fe,Bi,O,0.415684428999999,,,
mp-1069079,FeBiO3,Tetragonal,P4mm,99,10,137.348756390295,7.56404094811528,7.58314782748214,-30.98881497,-6.197762994,Fe,Bi,O,0.0268114939999995,,,
mp-555351,FeBiO3,Orthorhombic,Cmcm,63,10,122.78943566766,8.46092020750717,9.0227011761841,-130.01505185,-6.5007525925,Fe,Bi,O,0.255389192999999,,,
mp-547069,FeBiO3,Cubic,Pm-3m,221,10,122.78943566766,8.46092020750717,9.03398870241212,-32.49699184,-6.499398368,Fe,Bi,O,0.255312755,164.653123967873,164.653123967873,164.653123967873
mp-1182718,FeBiO3,Monoclinic,Cc,9,10,2832.20185947558,0.366821176263641,0.366821189742476,-28.16832106,-2.816832106,Fe,Bi,O,3.413610901,,,
mp-22949,FeBiO3,Trigonal,R3m,160,10,133.650025244951,7.77337389652419,8.17121179272593,-32.934587,-6.5869174,Fe,Bi,O,0.0335794109999998,88.3676882423153,85.0259364665384,86.6968123544268
mp-1181394,FeBiO3,Monoclinic,P2_1/m,11,20,246.2916288207,8.43643466473829,8.43643429715704,-119.8765379,-5.993826895,Fe,Bi,O,0.2566392445,,,
mp-23501,FeBiO3,Trigonal,R3c,161,10,125.366298583887,8.28700878341502,8.34216007193672,-66.17362819,-6.617362819,Fe,Bi,O,0.00163250299999973,114.417348918205,103.794613139525,109.105981028865
mp-645159,FeBiO3,Orthorhombic,Pnma,62,20,240.599623354469,8.63602031478083,8.36268547111682,-124.13074064,-6.206537032,Fe,Bi,O,0.0116057659999997,162.203581513635,162.131263847893,162.167422680764
mp-548231,FeBiO3,Trigonal,R3,146,10,116.807428987156,8.8942255344319,8.64189554862418,-66.18909942,-6.618909942,Fe,Bi,O,0.0621230749999997,,,
mp-551451,FeBiO3,Triclinic,P1,1,5,132.005422678823,3.93510962059732,4.31401592925334,-31.57709274,-6.315418548,Fe,Bi,O,0.437927116999998,,,
mp-1274711,FeBO3,Hexagonal,P6_3/mmc,194,20,236.181717368524,3.2244287215966,3.21897084384501,-72.96721957,-7.296721957,Fe,B,O,0.102478731,,,
mp-19097,FeBO3,Trigonal,R-3c,167,10,90.1860729272362,4.22211040064641,4.08425062817688,-73.84464135,-7.384464135,Fe,B,O,0,180.176532141664,167.307922528652,173.742227335158
mp-849295,FeBO3,Monoclinic,C2/c,15,20,235.112723428917,3.23908932656859,3.22683868858385,-76.69464727,-7.669464727,Fe,B,O,0.102652425500001,160.329558335802,151.935083059858,156.13232069783
mp-1199904,FeBO3,Monoclinic,P2_1/c,14,40,402.110928972674,3.78776630092952,3.78776677882992,-292.44512627,-7.31112815675,Fe,B,O,0.0919413762500003,,,
mp-18969,FeCO3,Trigonal,R-3c,167,10,95.4533447182052,4.03086822229035,3.81452611719012,-72.06969196,-7.206969196,Fe,C,O,0,116.93755970967,105.524817258446,111.231188484058
mp-675126,FeCO3,Monoclinic,Cc,9,10,114.261002864329,3.3673768327834,3.36737745532803,-66.44774081,-6.644774081,Fe,C,O,1.51767798099999,,,
mp-22334,FeGeO3,Monoclinic,C2/c,15,20,225.784130304773,5.19181304377771,5.0522249137011,-138.64300792,-6.932150396,Fe,Ge,O,0,,,
mp-1096837,FeGeS3,Monoclinic,C2/c,15,20,353.958592741777,4.21619844958382,4.21619845934778,-106.62554842,-5.331277421,Fe,Ge,S,0.167047032000002,,,
mp-768499,FeNiO3,Trigonal,R-3,148,10,101.918434476212,5.29636027946115,5.88235441477081,-68.48345301,-6.848345301,Fe,Ni,O,0.0819656357500014,163.183507239727,161.927101992247,162.555304615987
mp-1272388,FeNiO3,Trigonal,R3,146,10,101.26706381606,5.33042756216526,5.31802450679162,-57.25671084,-5.725671084,Fe,Ni,O,0.0774491447500019,,,
mp-973579,FePbO3,Cubic,Pm-3m,221,5,61.5149872436272,8.39631784291372,8.39631517917128,-29.495776,-5.8991552,Fe,Pb,O,0.198250186250005,,,
mp-5864,FePS3,Monoclinic,C2/m,12,20,413.333034408557,2.9409843997714,2.82180926379005,-54.94768765,-5.494768765,Fe,P,S,0.132290191727275,,,
mp-1232490,FePS3,Triclinic,P-1,2,20,418.634202867724,2.90374268938994,2.89684895398763,-110.13474492,-5.506737246,Fe,P,S,0.126815380227275,,,
mp-2928,FePSe3,Trigonal,R-3,148,10,208.963155674079,5.14458578477271,4.26002734588864,-49.81303446,-4.981303446,Fe,P,Se,0.111388732999998,,,
mp-1184349,FeRhO3,Cubic,Pm-3m,221,5,59.247936856377,5.79453583592273,5.79453538637136,-28.21500415,-5.64300083,Fe,Rh,O,1.03787618925,,,
mp-973648,FeRhO3,Cubic,Pm-3m,221,5,53.5857456853714,6.4068212344106,6.40685222707051,-28.01722715,-5.60344543,Fe,Rh,O,0.935127389250001,,,
mp-21939,FeSiO3,Orthorhombic,Pbca,61,80,925.787299789366,3.78614414616566,3.83222144435982,-621.25697709,-7.765712213625,Fe,Si,O,0.0136174913749993,,,
mp-18269,FeSiO3,Monoclinic,C2/c,15,20,233.009147971805,3.76075810349317,3.81678731948367,-310.71002253,-7.76775056325,Fe,Si,O,0.0165215194999977,,,
mp-561362,FeSiO3,Monoclinic,C2/c,15,20,230.276238329477,3.80539063769669,3.80539069512309,-155.35780112,-7.767890056,Fe,Si,O,0.0823895984999989,,,
mp-650392,FeSiO3,Triclinic,P-1,2,90,1045.14649621527,3.77297316757335,3.76867497974364,-669.29779815,-7.43664220166667,Fe,Si,O,0.0213741627222213,,,
mp-1199561,FeSiO3,Monoclinic,P2_1/c,14,40,457.989579978416,3.82668549561456,3.82668553794443,-297.71048987,-7.44276224675,Fe,Si,O,0.0139990412499991,,,
mp-1178214,FeSnO3,Orthorhombic,Pnma,62,20,233.751520283725,6.32395087823646,6.3360798765106,-127.56070964,-6.378035482,Fe,Sn,O,0.0351845344999999,,,
mp-1178212,FeSnO3,Triclinic,P-1,2,20,235.962672086363,6.26469059244394,6.04963087014495,-64.40434693,-6.440434693,Fe,Sn,O,0,,,
mp-1207083,FeSnO3,Cubic,Pm-3m,221,5,65.2454324344046,5.66412496948938,5.66412606060573,-28.34427983,-5.668855966,Fe,Sn,O,0.777139314,,,
mp-540655,FeSO3,Trigonal,R-3,148,30,384.972563658703,3.51735521243061,3.63617098081871,-195.83556969,-6.527852323,Fe,S,O,0.105119724025641,,,
mp-558285,GaBiO3,Orthorhombic,Pcca,54,20,278.086376569518,7.80334192006143,7.51572973187706,-118.03648841,-5.9018244205,Ga,Bi,O,0,,,
mp-755568,GaBiO3,Trigonal,R3c,161,10,125.049791648179,8.67655615847845,8.67655625952207,-58.53814818,-5.853814818,Ga,Bi,O,0.0491069025000002,,,
mp-22979,GaBiO3,Cubic,Pm-3m,221,5,59.0686617673901,9.18424006382728,9.18424062418257,-28.38972435,-5.67794487,Ga,Bi,O,0.225702022499999,,,
mp-1078259,GaBO3,Trigonal,R-3c,167,10,85.9331529033909,4.96741320910204,4.80239151097259,-70.26636733,-7.026636733,Ga,B,O,0.00377196316666684,,,
mp-1184023,GaBO3,Cubic,Pm-3m,221,5,38.0775540478629,5.60521138379221,5.60521029434018,-28.11221796,-5.622443592,Ga,B,O,1.40657783716667,,,
mp-1096988,GaCuBr3,Tetragonal,I4/mcm,140,10,281.484954722507,4.40058703819607,4.4005866365455,-25.77973781,-2.577973781,Ga,Cu,Br,0.497214014000002,,,
mp-1184033,GaFeO3,Cubic,Pm-3m,221,5,55.3622322858092,5.20595799413214,5.20595651748685,-27.10328381,-5.420656762,Ga,Fe,O,0.970704212499999,,,
mp-861324,GaFeO3,Triclinic,P1,1,40,435.625084654697,5.29287161633062,5.29287153154467,-68.48336392,-1.712084098,Ga,Fe,O,4.6809599625,,,
mp-649086,GaFeO3,Orthorhombic,Pna2_1,33,40,436.720592442893,5.27959451839215,5.27959470267603,-254.21018606,-6.3552546515,Ga,Fe,O,0.0357892067499996,,,
mp-1184032,GaFeO3,Cubic,Pm-3m,221,5,54.2100642462362,5.31660420899279,5.31660454526007,-27.25878957,-5.451757914,Ga,Fe,O,0.9412599325,,,
mp-868005,GaFeO3,Triclinic,P1,1,40,436.144257347958,5.28657114494795,5.2895333817786,-269.55451496,-6.738862874,Ga,Fe,O,0.0366685419999992,,,
mp-1183980,GaGeO3,Cubic,Pm-3m,221,5,52.9053344122518,5.97486459308068,5.97486678924451,-27.43968103,-5.487936206,Ga,Ge,O,0.672534478916665,,,
mp-1246681,GaMoN3,Triclinic,P-1,2,20,344.574396499793,4.00338393712084,4.00338392291236,-154.77046849,-7.7385234245,Ga,Mo,N,0.306156644233333,,,
mp-1183983,GaNiO3,Cubic,Pm-3m,221,5,49.4842594659066,5.91992965804496,5.91992811198299,-21.8516499,-4.37032998,Ga,Ni,O,1.00061850475,,,
mp-1184206,GaSiO3,Cubic,Pm-3m,221,5,45.7495376776822,5.29224411463588,5.29224296446643,-31.46238781,-6.292477562,Ga,Si,O,0.670366654500001,,,
mp-1184243,GaSnO3,Cubic,Pm-3m,221,5,58.055638394291,6.76253426922483,6.76253625666194,-27.40692994,-5.481385988,Ga,Sn,O,0.575774915125001,,,
mp-5223,GdAlO3,Orthorhombic,Pnma,62,20,207.092821954866,7.44838087059626,7.23565921396519,-196.22413039,-9.8112065195,Gd,Al,O,0.00838438890001925,186.01570481,183.281834823423,184.648769816711
mp-1178268,GdAlO3,Cubic,Pm-3m,221,5,52.117818601914,7.39913073333127,7.39913136704104,-48.67227729,-9.734455458,Gd,Al,O,0.0851176094000188,,,
mp-753953,GdAsO3,Monoclinic,P2_1/c,14,20,301.315102069506,6.17603160261368,6.17603248716266,-181.19034134,-9.059517067,Gd,As,O,0.0487711320000006,,,
mp-1184468,GdBeO3,Cubic,Pm-3m,221,5,46.6327924890044,7.62956099657834,7.62955877588435,-44.96241175,-8.99248235,Gd,Be,O,0.315310219624999,,,
mp-29762,GdBO3,Trigonal,R32,155,15,173.621844498909,6.19924428289203,6.19924478565151,-299.60226775,-9.98674225833333,Gd,B,O,0.219421033333333,,,
mp-1224628,GdBO3,Orthorhombic,Ama2,40,10,122.763003285557,5.84499780383838,5.65080673219897,-101.32322754,-10.132322754,Gd,B,O,0.0731713463333321,,,
mp-561949,GdBO3,Hexagonal,P6_3/mmc,194,10,157.437636710556,4.55767438834132,4.55767389228869,-100.61090926,-10.061090926,Gd,B,O,0.143536840333333,,,
mp-1194303,GdBO3,Monoclinic,C2/c,15,30,339.925160061331,6.33271292246112,6.19374551559864,-306.1800688,-10.2060022933333,Gd,B,O,0,,,
mp-1184471,GdCdO3,Cubic,Pm-3m,221,5,70.8770929548741,7.44225658070854,7.44225608384258,-36.89553541,-7.379107082,Gd,Cd,O,0.674893034625001,,,
mp-20951,GdCoO3,Cubic,Pm-3m,221,5,54.9350392433907,7.98549583486763,8.12935872487887,-46.297396,-9.2594792,Gd,Co,O,0.230719160500001,,,
mp-18331,GdCrO3,Orthorhombic,Pnma,62,20,224.595168378456,7.60771859687336,7.43732553843631,-209.10557332,-10.455278666,Gd,Cr,O,0,,,
mp-1147577,GdCrO3,Cubic,Pm-3m,221,5,58.0386376894423,7.35999718146167,7.35999677841936,-49.06193291,-9.812386582,Gd,Cr,O,0.234661732500001,,,
mp-1184481,GdCuO3,Cubic,Pm-3m,221,5,54.8197293663202,8.14201885224401,8.1420214866978,-42.16707093,-8.433414186,Gd,Cu,O,0.159207601312499,,,
mp-1184486,GdErO3,Cubic,Pm-3m,221,5,76.2868476956846,8.10838010579864,8.10838181127518,-47.63027858,-9.526055716,Gd,Er,O,0.734958887500001,,,
mp-766236,GdErO3,Monoclinic,C2,5,40,599.967743462127,8.24794685954748,8.04874630687226,-410.24981313,-10.25624532825,Gd,Er,O,0.00490346425000077,,,
mp-600576,GdFeO3,Orthorhombic,Pnma,62,20,232.211128735679,7.46829768209971,7.52126104862206,-196.76520163,-9.8382600815,Gd,Fe,O,0.00407831899999955,127.822859995011,124.943462766233,126.383161380622
mp-18656,GdGaO3,Orthorhombic,Pnma,62,20,232.605479112767,7.85192888029128,7.85192795309244,-181.09296885,-9.0546484425,Gd,Ga,O,0.0489260800000082,,,
mp-1212640,GdInO3,Hexagonal,P6_3cm,185,30,433.538913731294,7.35549791031151,7.17426660507156,-266.1083067,-8.87027689,Gd,In,O,0,,,
mp-1212778,GdInO3,Orthorhombic,Pnma,62,20,273.140260959915,7.78328946645045,7.78328999394156,-176.38001717,-8.8190008585,Gd,In,O,0.0522357921666696,,,
mp-756424,GdLuO3,Orthorhombic,Pnma,62,20,278.056242477549,9.08251061281044,9.08250968928829,-204.59342239,-10.2296711195,Gd,Lu,O,0.0555969621249997,,,
mp-510575,GdMnO3,Orthorhombic,Pnma,62,20,228.992638938675,7.54695742914537,7.41207649728636,-204.70763743,-10.2353818715,Gd,Mn,O,0,,,
mp-505604,GdNiO3,Orthorhombic,Pnma,62,20,214.980192629519,8.15489711382329,7.99442603880961,-181.61478882,-9.080739441,Gd,Ni,O,0,,,
mp-1184503,GdRhO3,Cubic,Pm-3m,221,5,62.2782663827876,8.21636964366048,8.21636988515626,-44.55943638,-8.911887276,Gd,Rh,O,0.424622490749995,,,
mp-5690,GdScO3,Orthorhombic,Pnma,62,20,251.667456867936,6.60353480375468,6.48480438937039,-211.16730696,-10.558365348,Gd,Sc,O,0.0117445718749991,163.459338723253,159.941274959319,161.700306841286
mp-510490,GdScS3,Orthorhombic,Pnma,62,20,431.91321184206,4.58894387390273,4.5747555551997,-171.19459777,-8.5597298885,Gd,Sc,S,0.0015221423333287,,,
mp-1184484,GdSiO3,Cubic,Pm-3m,221,5,51.9087667514705,7.46424445526532,7.46424595647622,-46.69052361,-9.338104722,Gd,Si,O,0.607033879624991,,,
mp-1184491,GdThO3,Cubic,Pm-3m,221,5,96.634966163048,7.51416331840212,7.51416172432484,-49.93157419,-9.986314838,Gd,Th,O,0.781193510333335,,,
mp-510278,GdTiO3,Orthorhombic,Pnma,62,20,239.230810174408,7.02765129029747,7.02765220240771,-211.35538846,-10.567769423,Gd,Ti,O,0.0266896694999925,,,
mp-756030,GdTmO3,Orthorhombic,Pnma,62,20,282.195483249821,8.80729206129039,8.80729080720162,-203.85700938,-10.192850469,Gd,Tm,O,0.0678473967500004,,,
mp-541177,GdVO3,Orthorhombic,Pnma,62,20,229.684309341922,7.40865593351854,7.14168028014044,-201.8958423,-10.094792115,Gd,V,O,0,,,
mp-1184599,GdZrO3,Cubic,Pm-3m,221,5,72.1126937347448,6.82686562884074,6.82686487982265,-51.77468186,-10.354936372,Gd,Zr,O,0.392865106200007,,,
mp-1184562,GeBiO3,Cubic,Pm-3m,221,5,61.5320990778557,8.89526882035101,8.8952694889959,-28.52380262,-5.704760524,Ge,Bi,O,0.396249078333336,,,
mp-973738,GeBO3,Cubic,Pm-3m,221,5,39.5591359564748,5.51772748811999,5.51772529468655,-29.13135345,-5.82627069,Ge,B,O,1.32304001941667,,,
mp-28369,GeClH3,Orthorhombic,Cmc2_1,36,10,169.938881175194,2.17153154463975,1.92769041973506,-35.05333021,-3.505333021,Ge,Cl,H,0,,,
mp-553898,GePbO3,Monoclinic,P2/c,13,60,963.397868023716,6.78085127683205,6.37595831870151,-368.31910926,-6.138651821,Ge,Pb,O,0.0131102436666692,,,
mp-554699,GePbO3,Trigonal,R-3,148,30,513.916706623876,6.355755299727,6.07507938694136,-184.55366812,-6.15178893733333,Ge,Pb,O,0,,,
mp-1017566,GePbO3,Cubic,Pm-3m,221,5,58.7929430887299,9.25941295033041,9.25941201618627,-29.66904424,-5.933808848,Ge,Pb,O,0.217755943000003,,,
mp-624190,GePbS3,Monoclinic,P2_1/c,14,20,517.57900371987,4.82570431506056,4.80091721799514,-91.53929183,-4.5769645915,Ge,Pb,S,0,,,
mp-1184557,GePdO3,Cubic,Pm-3m,221,5,53.4835165614373,7.0496301614492,7.04962819615027,-27.26065492,-5.452130984,Ge,Pd,O,0.626250496333331,,,
mp-541785,GePdS3,Monoclinic,C2/m,12,10,228.124516556043,4.00721226878475,3.86344460666833,-47.90246063,-4.790246063,Ge,Pd,S,0,12.4290509009581,0.187679330731842,6.308365115845
mp-1078197,CBrH3,Orthorhombic,Cmc2_1,36,10,157.448480339628,2.00254865648909,2.17079881362321,-43.76325195,-4.376325195,C,Br,H,0.0547928302499994,,,
mp-1078233,CClH3,Orthorhombic,Cmc2_1,36,10,127.363164469396,1.31649523133345,1.34488508803385,-44.98797783,-4.498797783,C,Cl,H,0.0795137552499989,,,
mp-1096983,CIH3,Trigonal,R3m,160,5,3708.6735024971,0.0635524366893042,0.0635525384940733,-21.29080409,-4.258160818,C,I,H,0.0722905411666659,,,
mp-1181198,CIH3,Orthorhombic,Pnma,62,20,354.261999863785,2.66125340069635,2.66125336905869,-85.6401218,-4.28200609,C,I,H,0.0484512241666657,,,
mp-554676,CSH3,Monoclinic,P2_1/c,14,40,522.698916026639,1.19702705446777,1.19702707187466,-193.43993016,-4.835998254,C,S,H,0.0469658166607152,,,
mp-559204,CSH3,Monoclinic,P2_1/c,14,40,549.45318456906,1.13874077245652,1.13874088697457,-193.47161533,-4.83679038325,C,S,H,0.0457691816607158,,,
mp-1200055,CSeH3,Orthorhombic,Fdd2,43,40,665.126626361347,1.87731558257023,1.8773155244316,-186.69508452,-4.667377113,C,Se,H,0.00600346390624917,,,
mp-1184563,HfBeO3,Cubic,Pm-3m,221,5,40.6485037727462,9.62046688597718,9.62047017341068,-40.91133401,-8.182266802,Hf,Be,O,0.766009567499999,,,
mp-1184625,HfBO3,Cubic,Pm-3m,221,5,40.1803820086125,9.8068901382885,9.80689281581545,-39.51714319,-7.903428638,Hf,B,O,1.3355054685,,,
mp-1017446,HfCdO3,Cubic,Pm-3m,221,5,68.8256808465743,8.17653170033983,8.17653156936083,-37.04961108,-7.409922216,Hf,Cd,O,0.280328004499998,,,
mp-1212404,HfCdO3,Orthorhombic,Pnma,62,20,247.382753727504,9.09934670481307,8.8067301729036,-153.50954749,-7.6754773745,Hf,Cd,O,0.0146295014999982,,,
mp-753534,HfCoO3,Orthorhombic,Pnma,62,20,229.816623689082,8.2492444494734,8.27173003264153,-172.84153648,-8.642076824,Hf,Co,O,0.094861511999996,,,
mp-756322,HfCrO3,Orthorhombic,Pnma,62,20,244.806767151173,7.55590321241721,7.65489565182536,-189.00540697,-9.4502703485,Hf,Cr,O,0.0972898756666663,138.059704155692,125.472283122215,131.765993638954
mp-753790,HfFeO3,Orthorhombic,Pnma,62,20,235.705452334387,7.9561215704605,8.08051451285646,-179.72093214,-8.986046607,Hf,Fe,O,0.0961925840000042,,,
mp-753856,HfFeO3,Orthorhombic,Pnma,62,20,235.589526798485,7.96003650534446,8.09336675792698,-180.31644031,-9.0158220155,Hf,Fe,O,0.0626525855000022,,,
mp-1016825,HfMgO3,Cubic,Pm-3m,221,5,67.541266847953,6.16588828834277,6.16588800788647,-39.55861516,-7.911723032,Hf,Mg,O,0.589504466499999,,,
mp-754657,HfMnO3,Orthorhombic,Pnma,62,20,239.865188528171,7.79303202864151,7.83475035441029,-188.11894845,-9.4059474225,Hf,Mn,O,0.0318619254999959,,,
mp-1178219,HfNiO3,Monoclinic,P2_1/c,14,20,216.253227796427,8.75927157621495,8.75927202444162,-158.11806596,-7.905903298,Hf,Ni,O,0.0968432884999952,,,
mp-1184669,HfNpO3,Cubic,Pm-3m,221,5,69.9867372668019,10.9969444649792,10.9969455696992,-51.2668648,-10.25337296,Hf,Np,O,0.359693673625003,,,
mp-755790,HfPbO3,Orthorhombic,Pnma,62,20,275.258334878069,10.4651682811703,10.2607801837749,-165.51404107,-8.2757020535,Hf,Pb,O,0.014474155312497,,,
mp-22734,HfPbO3,Orthorhombic,Pbam,55,40,557.244226705338,10.3388232923478,10.0576537196474,-331.24054214,-8.2810135535,Hf,Pb,O,0.00902237806249673,,,
mp-669414,HfPbO3,Orthorhombic,Pba2,32,40,581.40648805921,9.90915944164826,9.90915902334754,-331.09832775,-8.27745819375,Hf,Pb,O,0.0125117465624953,,,
mp-1181854,HfPbO3,Orthorhombic,Pbam,55,40,615.080736754851,9.36665586534813,9.36665692700474,-320.41503586,-8.0103758965,Hf,Pb,O,0.277536839312496,,,