material_id,formula_pretty,crystal_system,space_group,number,nsites,volume,density,density,energy,energy_per_atom,A_site,B_site,X_site,energy_above_hull,k_voigt,k_reuss,k_vrh
mp-1244876,CrFeO3,Triclinic,P1,1,80,1143.79012870332,3.61992626818648,3.6199261568812,-551.86134401,-6.898266800125,Cr,Fe,O,0.759128269,,,
mp-1245179,CrFeO3,Triclinic,P1,1,80,991.233118785431,4.1770556831867,4.17705552245051,-555.35756605,-6.941969575625,Cr,Fe,O,0.39901631575,,,
mp-8829,CrGaSe3,Orthorhombic,Pnma,62,20,482.741673484041,4.93404938918981,4.80345020807667,-104.02700727,-5.2013503635,Cr,Ga,Se,0,,,
mp-1183712,CrGeO3,Cubic,Pm-3m,221,5,52.4518871673783,5.46531335412908,5.46531479961108,-32.34075327,-6.468150654,Cr,Ge,O,0.570815322749998,,,
mp-28532,CrInBr3,Monoclinic,P2_1/c,14,20,617.045107772701,4.37603320819913,4.37603282170526,-82.19556429,-4.1097782145,Cr,In,Br,0.0499958158333316,,,
mp-756147,CrInO3,Orthorhombic,Pnma,62,20,221.05787380768,6.45449465322426,6.53337314881412,-142.86402067,-7.1432010335,Cr,In,O,0.0512829044999981,,,
mp-1226313,CrMoO3,Trigonal,R3,146,5,60.3256839517027,5.39333395535818,5.3933335129382,-36.24565866,-7.249131732,Cr,Mo,O,0.44449728625,,,
mp-22364,CrPbO3,Cubic,Pm-3m,221,5,60.1007198851982,8.48755451118102,8.67748505791578,-35.72448903,-7.144897806,Cr,Pb,O,0.156582256000012,,,
mp-1101069,CrPSe3,Monoclinic,C2/m,12,10,233.481283445016,4.54959972346303,4.54960011207433,-53.59744995,-5.359744995,Cr,P,Se,0.0415223989999971,,,
mp-1183719,CrRhO3,Cubic,Pm-3m,221,5,60.0951043992927,5.60649736568711,5.60649916525708,-31.57764973,-6.315529946,Cr,Rh,O,0.972423525249999,,,
mp-9130,CrSbS3,Orthorhombic,Pnma,62,20,416.398285487365,4.30611136736051,4.29389742068102,-114.22347219,-5.7111736095,Cr,Sb,S,0,,,
mp-15236,CrSbSe3,Orthorhombic,Pnma,62,20,482.628212088945,5.65136698706374,5.60782876285731,-104.94318554,-5.247159277,Cr,Sb,Se,0,33.2507349106718,30.0994203604879,31.6750776355798
mp-1183695,CrTcO3,Cubic,Pm-3m,221,5,58.9827965166367,5.57412143083764,5.57412048236306,-37.79167205,-7.55833441,Cr,Tc,O,0.630481439124999,,,
mp-1226283,CrWO3,Trigonal,R3,146,5,113.260511943298,4.16136158581926,4.16136225064981,-35.71483038,-7.142966076,Cr,W,O,0.726917570800001,,,
mp-1183923,CsAcO3,Cubic,Pm-3m,221,5,115.521012864932,5.86334842978488,5.86334938325755,-28.82647714,-5.765295428,Cs,Ac,O,0.219559309999999,,,
mp-998344,CsAgBr3,Monoclinic,Pm,6,5,165.986103364053,4.80681924420373,4.8068191318493,-13.20727642,-2.641455284,Cs,Ag,Br,1.97939999999619E-05,26.1905850302416,26.190386935427,26.1904859828343
mp-1399321,CsAgBr3,Orthorhombic,Amm2,38,5,165.986178947481,4.80681705537161,4.80681705537161,-13.245084,-2.6490168,Cs,Ag,Br,0,,,
mp-1946459,CsAgBr3,Cubic,Pm-3m,221,5,159.166330792339,5.0127762068077,5.02110130115768,-91.69270278,-18.338540556,Cs,Ag,Br,0.00249822000000011,,,
mp-28610,CsAgCl3,Tetragonal,I4/mmm,139,10,278.698131104458,4.13657118896402,3.81986601716144,-29.34964097,-2.934964097,Cs,Ag,Cl,0,14.152195987756,9.8024934926333,11.9773447401946
mp-561920,CsAgF3,Tetragonal,I4/mcm,140,10,174.821538923594,5.65670374923147,5.25519646733914,-37.46464101,-3.746464101,Cs,Ag,F,0,,,
mp-1183911,CsAsO3,Cubic,Pm-3m,221,5,67.6972682556886,6.2751102954149,6.27510913251425,-23.95940781,-4.791881562,Cs,As,O,0.7626517825,,,
mp-1178465,CsAsO3,Trigonal,P-31m,162,10,219.979819585358,3.86224359855791,3.86218189247117,-54.57882471,-5.457882471,Cs,As,O,0.1005165575,,,
mp-776093,CsAsO3,Orthorhombic,Pbcm,57,20,380.3960704335,4.46700539801711,4.16143015755767,-111.13383836,-5.556691918,Cs,As,O,0,,,
mp-569548,CsAuBr3,Tetragonal,I4/mmm,139,10,349.556024097602,5.41153035973126,5.13066945190399,-27.14917335,-2.714917335,Cs,Au,Br,0,,,
mp-1112987,CsAuBr3,Cubic,Pm-3m,221,5,163.895426145143,5.77085365138842,5.77085405532882,-26.62763047,-2.662763047,Cs,Au,Br,0.0530597589999999,,,
mp-23484,CsAuCl3,Tetragonal,I4/mmm,139,10,305.913753601762,4.73583579514537,4.42914785817554,-29.86079751,-2.986079751,Cs,Au,Cl,0,,,
mp-23026,CsAuCl3,Cubic,Pm-3m,221,5,141.1630216413,5.13150429797344,5.12496147959997,-14.55425437,-2.910850874,Cs,Au,Cl,0.0706433439999996,,,
mp-1112985,CsAuF3,Cubic,Pm-3m,221,5,95.2985201030349,6.74100866559143,6.74100839983753,-36.4158779,-3.64158779,Cs,Au,F,0.104128091333333,,,
mp-28453,CsAuI3,Tetragonal,I4/mmm,139,10,431.294694186006,5.47168738253646,5.27279748855096,-24.67009187,-2.467009187,Cs,Au,I,0,,,
mp-1185548,CsAuO3,Cubic,Pm-3m,221,5,78.9520430656901,7.94746075648926,7.94745990667863,-19.19079843,-3.838159686,Cs,Au,O,0.447960065250001,,,
mp-567913,CsAuSe3,Monoclinic,C2/c,15,10,330.108213288374,5.70185068953021,5.50934391392785,-34.19591827,-3.419591827,Cs,Au,Se,0,,,
mp-1096925,CsBaI3,Orthorhombic,Pnma,62,20,1033.6136394682,4.18307573604658,4.04603412051725,-63.49360175,-3.1746800875,Cs,Ba,I,0,,,
mp-1183934,CsBaO3,Cubic,Pm-3m,221,5,127.32547365151,4.15026478610132,4.15026570958103,-22.12786033,-4.425572066,Cs,Ba,O,0.48376279,,,
mp-1017555,CsBeF3,Cubic,Pm-3m,221,5,65.7113999757961,5.02656384739793,5.02656268317525,-22.69417263,-4.538834526,Cs,Be,F,0.662552305499996,,,
mp-12262,CsBeF3,Orthorhombic,Pnma,62,20,364.070602113014,3.62899443748782,3.39700689436187,-104.08177743,-5.2040888715,Cs,Be,F,0,,,
mp-24341,CsBeH3,Monoclinic,P2_1/m,11,10,221.480427439713,2.17338343936749,2.11491617037198,-30.61715543,-3.061715543,Cs,Be,H,0,,,
mp-983578,CsBiO3,Cubic,Pm-3m,221,5,86.208370294422,7.50991693049256,7.50991522918108,-24.37959296,-4.875918592,Cs,Bi,O,0.0395539524285669,,,
mp-28873,CsBrO3,Trigonal,R3m,160,5,99.7761200581325,4.34053052569931,3.94404905264758,-20.59120694,-4.118241388,Cs,Br,O,0,,,
mp-573358,CsBSe3,Monoclinic,P2_1/c,14,20,593.010030071764,4.26296517725217,4.10708349283959,-83.65860584,-4.182930292,Cs,B,Se,0,,,
mp-30056,CsCaBr3,Cubic,Pm-3m,221,5,186.038933476239,3.68362099095573,3.56256264132381,-17.74246446,-3.548492892,Cs,Ca,Br,0,,,
mp-1206863,CsCaCl3,Tetragonal,I4/mcm,140,10,317.041334513433,2.92617399590291,2.84581814978784,-39.62826778,-3.962826778,Cs,Ca,Cl,0.000306744999999609,,,
mp-1097916,CsCaCl3,Cubic,Pm-3m,221,5,159.042169597356,2.91657901495009,2.83628627935246,-19.81561046,-3.963122092,Cs,Ca,Cl,0,,,
mp-1096927,CsCaCl3,Tetragonal,P4mm,99,5,163.02207990762,2.84537563624901,2.84537559066924,-19.81490194,-3.962980388,Cs,Ca,Cl,0.000291490000000394,,,
mp-7104,CsCaF3,Cubic,Pm-3m,221,5,92.3779592899089,4.13397908809232,3.96602083117552,-25.86332587,-5.172665174,Cs,Ca,F,0,,,
mp-644203,CsCaH3,Cubic,Pm-3m,221,5,98.6870908722888,2.96155199643955,2.94079833578795,-14.9611432,-2.99222864,Cs,Ca,H,0.012165698,,,
mp-1213688,CsCaI3,Orthorhombic,Pnma,62,20,925.525711627069,3.97367791597022,3.87780260868271,-62.00799414,-3.100399707,Cs,Ca,I,0.0102404885,,,
mp-998333,CsCaI3,Monoclinic,Cm,8,5,242.222378107857,3.7958312416096,3.79583181905712,-15.44434955,-3.08886991,Cs,Ca,I,0.0208026814999998,,,
mp-998428,CsCaI3,Orthorhombic,Pnma,62,20,901.910735949121,4.0777218125526,3.94438716616002,-62.1923139,-3.109615695,Cs,Ca,I,0,,,
mp-984240,CsCaO3,Cubic,Pm-3m,221,5,102.824744361705,3.56868055699652,3.56868100258061,-23.09836115,-4.61967223,Cs,Ca,O,0.424696733999998,,,
mp-541899,CsCdBr3,Hexagonal,P6_3/mmc,194,10,351.636521676389,4.58091604906549,4.3322995212011,-26.20679771,-2.620679771,Cs,Cd,Br,0,,,
mp-570231,CsCdBr3,Cubic,Pm-3m,221,5,169.118752280334,4.76238549500064,4.52957705119893,-12.93930798,-2.587861596,Cs,Cd,Br,0.0326752269999999,,,
mp-619015,CsCdCl3,Hexagonal,P6_3/mmc,194,30,896.796766964518,3.90704459353117,3.73583359786418,-88.35413953,-2.94513798433333,Cs,Cd,Cl,0,,,
mp-568544,CsCdCl3,Cubic,Pm-3m,221,5,145.897232752704,4.00261756598215,3.85698603947874,-14.68795218,-2.937590436,Cs,Cd,Cl,0.00747211766666656,,,
mp-8399,CsCdF3,Cubic,Pm-3m,221,5,90.326094950798,5.55764449335436,5.28387702463711,-19.70974251,-3.941948502,Cs,Cd,F,0,,,
mp-1183925,CsCdO3,Cubic,Pm-3m,221,5,93.6396878047349,5.20143167608363,5.20143203948121,-18.10767909,-3.621535818,Cs,Cd,O,0.433216832,,,
mp-760386,CsClO3,Trigonal,R3m,160,5,109.079427557219,3.29364281463861,3.29371801083139,-21.26653399,-4.253306798,Cs,Cl,O,0.0674473406250007,,,
mp-754202,CsClO3,Orthorhombic,Pmn2_1,31,10,211.655292719559,3.39484704759786,3.39487523820619,-42.49909701,-4.249909701,Cs,Cl,O,0.0709065526250008,,,
mp-779389,CsClO3,Monoclinic,P2_1/m,11,10,236.146502868904,3.04276089998398,3.04276080236085,-42.56542304,-4.256542304,Cs,Cl,O,0.0641775696250004,,,
mp-504708,CsCoCl3,Hexagonal,P6_3/mmc,194,10,273.033196789617,3.62716950222862,3.541182720015,-38.79393045,-3.879393045,Cs,Co,Cl,0,15.6255833343165,14.5389435839663,15.0822634591414
mp-556943,CsCoF3,Trigonal,R-3m,166,15,259.252412255359,4.7814213516825,4.81567920626039,-73.18419524,-4.87894634933333,Cs,Co,F,0.101264510083337,,,
mp-27179,CsCrBr3,Hexagonal,P6_3mc,186,10,338.58288634359,4.16493224895143,4.16493290043405,-42.2058555,-4.22058555,Cs,Cr,Br,0.0667030093333327,,,
mp-610955,CsCrCl3,Hexagonal,P6_3mc,186,10,292.300434333001,3.30926312917095,3.30926274789793,-45.94064336,-4.594064336,Cs,Cr,Cl,0.0801544863333312,,,
mp-570326,CsCrCl3,Hexagonal,P6_3/mmc,194,10,292.36857412596,3.30849186808331,3.3084917053281,-45.94444381,-4.594444381,Cs,Cr,Cl,0.0798354363333313,,,
mp-29616,CsCrCl3,Monoclinic,C2/m,12,10,287.089601401962,3.36932806083949,3.22805558819881,-46.03071934,-4.603071934,Cs,Cr,Cl,0.0679255063333315,,,
mp-1172893,CsCrI3,Orthorhombic,Cmcm,63,20,1240.6450990102,3.02818506803516,3.02818468831518,-66.66089274,-3.333044637,Cs,Cr,I,0.553264324500001,,,
mp-580597,CsCrI3,Orthorhombic,Pbcn,60,20,823.958684296028,4.55957687582782,4.55957660281552,-76.57949241,-3.8289746205,Cs,Cr,I,0.0565695775000012,,,
mp-27259,CsCrI3,Hexagonal,P6_3/mmc,194,10,408.761417572721,4.59547159057069,4.59547168401911,-38.28433122,-3.828433122,Cs,Cr,I,0.0591978160000011,,,
mp-27336,CsCuBr3,Orthorhombic,C222_1,20,20,627.382524209117,4.61770242781994,4.3547638471551,-58.19047179,-2.9095235895,Cs,Cu,Br,0,,,
mp-23032,CsCuCl3,Hexagonal,P6_122,178,30,835.374700527638,3.61151888969456,3.45959469746284,-96.65849267,-3.22194975566667,Cs,Cu,Cl,0,,,
mp-675287,CsCuCl3,Hexagonal,P6_3/mmc,194,10,278.104351780972,3.61611446879311,3.61611430902951,-31.92935614,-3.192935614,Cs,Cu,Cl,0.0492221423333352,15.2485762607622,14.2125941172506,14.7305851890064
mp-2456411,CsCuCl3,Monoclinic,C2/c,15,10,301.325352005011,3.33744626403946,3.33744626403946,-32.26260516,-3.226260516,Cs,Cu,Cl,0.0027453363333354,,,
mp-567366,CsCuCl3,Hexagonal,P6_3mc,186,10,279.175350541533,3.60224199005667,3.60224136679218,-31.92612282,-3.192612282,Cs,Cu,Cl,0.0325443323333352,15.5759911318885,14.9835999507701,15.2797955413293
mp-1079040,CsDyBr3,Tetragonal,P4/mbm,127,10,368.305708958831,4.82524931047822,4.8252493679237,-36.90465539,-3.690465539,Cs,Dy,Br,0.0924846973333322,,,
mp-505418,CsDyI3,Orthorhombic,Pnma,62,20,891.963453311926,5.03483311869486,5.03483335002981,-65.33649999,-3.2668249995,Cs,Dy,I,0.0999527153333331,,,
mp-638685,CsEuBr3,Orthorhombic,Pnma,62,20,808.6999868931,4.30858418999256,4.18441414089018,-103.85848466,-5.192924233,Cs,Eu,Br,0,,,
mp-1068377,CsEuCl3,Cubic,Pm-3m,221,5,178.752299944184,3.6343595497694,3.62586208046576,-27.89216435,-5.57843287,Cs,Eu,Cl,1.1125926235,,,
mp-1213256,CsEuCl3,Orthorhombic,Pnma,62,20,700.729492228815,3.70842178358466,3.59572683991455,-111.64060869,-5.5820304345,Cs,Eu,Cl,0,,,
mp-8396,CsEuF3,Cubic,Pm-3m,221,5,108.523458866803,5.23093929956177,5.00873535956755,-33.4485166,-6.68970332,Cs,Eu,F,0,,,
mp-1185550,CsEuO3,Cubic,Pm-3m,221,5,97.4962479003604,5.66934371210111,5.66934535810931,-33.78362282,-6.756724564,Cs,Eu,O,0.156326099875,,,
mp-1079847,CsFeBr3,Hexagonal,P6_3/mmc,194,10,309.098445639567,4.60357306863208,4.58218264074826,-36.61288124,-3.661288124,Cs,Fe,Br,0.120567678,,,
mp-29400,CsFeCl3,Hexagonal,P6_3/mmc,194,10,284.914225179302,3.43991791560756,3.43991799748313,-42.51459696,-4.251459696,Cs,Fe,Cl,0,14.2337628084294,13.7906388211317,14.0122008147806
mp-558694,CsFeF3,Cubic,Pm-3m,221,5,80.1616706049422,5.09059090571212,5.07451461804732,-23.62937148,-4.725874296,Cs,Fe,F,0.31336022525001,,,
mp-555302,CsFeF3,Hexagonal,P6_3/mmc,194,30,510.487313473929,4.79624383130591,4.7962437320917,-150.55594887,-5.018531629,Cs,Fe,F,0.00748031558334361,,,
mp-562726,CsGaS3,Monoclinic,P2_1/c,14,20,596.626435482528,3.3267584966791,3.22286408786616,-81.92710524,-4.096355262,Cs,Ga,S,0,,,
mp-510283,CsGaSe3,Monoclinic,P2_1/c,14,20,668.817674975403,4.36484250813304,4.15689001805687,-73.3773455,-3.668867275,Cs,Ga,Se,0,,,
mp-984082,CsGdO3,Cubic,Pm-3m,221,5,93.914378287005,5.97903494369514,5.97903630799801,-39.09972497,-7.819944994,Cs,Gd,O,0.2189109055,,,
mp-642739,CsGeBr3,Monoclinic,Cm,8,5,191.741593428575,3.85606158973609,3.85606148725534,-16.06134545,-3.21226909,Cs,Ge,Br,0.000624390000000474,,,
mp-1068340,CsGeBr3,Trigonal,R3m,160,5,182.014693429927,4.06213025795836,3.95362641711812,-15.96942006,-3.193884012,Cs,Ge,Br,0,,,
mp-570223,CsGeBr3,Cubic,Pm-3m,221,5,169.417801492696,4.36416590854295,4.18141481918231,-15.99708111,-3.199416222,Cs,Ge,Br,0.0125155320000006,,,
mp-22988,CsGeCl3,Trigonal,R3m,160,5,162.925275517421,3.17893909205653,3.08223521109876,-17.78034267,-3.556068534,Cs,Ge,Cl,0,,,
mp-642690,CsGeI3,Monoclinic,Cm,8,5,234.166035548601,4.15733110501994,4.15733140473216,-14.24290912,-2.848581824,Cs,Ge,I,0.00863977399999971,,,
mp-28377,CsGeI3,Trigonal,R3m,160,5,225.068116789641,4.32538272062448,4.29530969284653,-14.282119,-2.8564238,Cs,Ge,I,0,,,
mp-984051,CsGeO3,Cubic,Pm-3m,221,5,67.1488180758564,6.26994117145541,6.26994130240647,-24.71626396,-4.943252792,Cs,Ge,O,0.574003545291667,,,
mp-998323,CsInBr3,Tetragonal,P4mm,99,5,192.514060652428,4.2043973701594,4.20440073383139,-14.59955986,-2.919911972,Cs,In,Br,0.0189945980000004,,,
mp-2649045,CsInBr3,Cubic,Pm-3m,221,5,184.331200294983,4.39103965595892,4.24639546890495,-14.60812473,-2.921624946,Cs,In,Br,0.019845686,,,
mp-1112338,CsInBr3,Cubic,Fm-3m,225,10,382.16884936346,4.23585340183492,4.06980935234462,-29.411103,-2.9411103,Cs,In,Br,0,,,
mp-1112961,CsInCl3,Cubic,Fm-3m,225,10,334.596255322538,3.51449088161903,3.37559447543241,-32.88246616,-3.288246616,Cs,In,Cl,0,,,
mp-998322,CsInF3,Cubic,Pm-3m,221,5,102.129222481662,4.95448050467303,4.95453620151374,-21.24779519,-4.249559038,Cs,In,F,0.106408643999999,,,
mp-1112960,CsInF3,Cubic,Fm-3m,225,10,206.70037057661,4.89594905254679,4.60693939590314,-43.76617019,-4.376617019,Cs,In,F,0,,,
mp-1112643,CsInI3,Cubic,Fm-3m,225,10,483.706083284529,4.31478534646676,4.31478561661284,-25.70081876,-2.570081876,Cs,In,I,0.0218313262499996,,,
mp-998430,CsInI3,Triclinic,P-1,2,20,1195.91901450354,3.49034992309964,3.33214975353127,-51.42397986,-2.571198993,Cs,In,I,0.01784049775,,,
mp-28295,CsIO3,Orthorhombic,Pmn2_1,31,10,203.892474642291,5.01369569748416,4.66025300373762,-44.11372068,-4.411372068,Cs,I,O,0,,,
mp-613384,CsIO3,Cubic,Pm-3m,221,5,96.7235643454211,5.28441455699851,5.28441340172726,-12.17193783,-2.434387566,Cs,I,O,1.966420805,,,
mp-984356,CsIrO3,Cubic,Pm-3m,221,5,68.6026226152511,9.03145383391611,9.03145488058813,-27.70752673,-5.541505346,Cs,Ir,O,0.210786145833332,,,
mp-984357,CsKO3,Cubic,Pm-3m,221,5,90.7114337322384,4.02729645897296,4.02729687846906,-16.8544586,-3.37089172,Cs,K,O,0.688046468999998,,,
mp-1183918,CsLaO3,Cubic,Pm-3m,221,5,108.214579991197,4.9074305958882,4.90743067174873,-29.70555749,-5.941111498,Cs,La,O,0.249896992625,,,
mp-29750,CsMgBr3,Hexagonal,P6_3/mmc,194,10,329.791223604466,3.99710599079559,3.75860016668519,-31.42535277,-3.142535277,Cs,Mg,Br,0,11.0072368965848,10.3751754866422,10.6912061916135
mp-23004,CsMgCl3,Hexagonal,P6_3/mmc,194,10,284.729803359702,3.07426455873599,2.93354125374656,-35.61896068,-3.561896068,Cs,Mg,Cl,0,13.8546226886556,12.9567392861063,13.405680987381
mp-8401,CsMgF3,Cubic,Pm-3m,221,5,76.8907034334532,4.62600617921894,4.62600486493075,-23.973048,-4.7946096,Cs,Mg,F,0.0576306187500011,63.6287573484095,63.6287573484095,63.6287573484095
mp-23751,CsMgH3,Trigonal,R-3m,166,15,249.585096283294,3.19821101813081,3.15497586922502,-41.3153295,-2.7543553,Cs,Mg,H,0.00410364699999999,,,
mp-571020,CsMgH3,Orthorhombic,Pmmn,59,30,519.165584372844,3.07503358820956,3.0049430150761,-82.75497103,-2.75849903433333,Cs,Mg,H,0,,,
mp-29751,CsMgI3,Hexagonal,P6_3/mmc,194,10,419.419902417093,4.25942394432683,4.07493801636011,-26.83418062,-2.683418062,Cs,Mg,I,0,8.39087146771158,8.36843139098144,8.37965142934651
mp-984756,CsMgO3,Cubic,Pm-3m,221,5,79.0862279391302,4.30867664527557,4.30867744223999,-21.91358855,-4.38271771,Cs,Mg,O,0.4803329,,,
mp-23048,CsMnBr3,Hexagonal,P6_3/mmc,194,10,331.491542532425,4.2835035869585,4.02460790544706,-42.43394554,-4.243394554,Cs,Mn,Br,0,,,
mp-23336,CsMnCl3,Trigonal,R-3m,166,15,422.315546166055,3.47040082252825,3.33808245309695,-69.1531909,-4.61021272666667,Cs,Mn,Cl,0,,,
mp-558702,CsMnF3,Hexagonal,P6_3/mmc,194,30,505.013004373979,4.83034179679841,4.55945301053994,-166.17227497,-5.53907583233333,Cs,Mn,F,0,,,
mp-540609,CsMnI3,Hexagonal,P6_3/mmc,194,10,415.062599781013,4.54924609440032,4.44990296259163,-38.34038905,-3.834038905,Cs,Mn,I,0.00220943633333093,,,
mp-1183917,CsMoO3,Cubic,Pm-3m,221,5,70.6027203217141,6.51121794210493,6.51121561650134,-30.22164904,-6.044329808,Cs,Mo,O,0.37378243525,,,
mp-1214236,CSN3,Triclinic,P-1,2,10,259.186236209729,1.10318697058045,1.10318690713404,-71.50841767,-7.150841767,C,S,N,0.287041587035715,,,
mp-998609,CsNaF3,Orthorhombic,Pnma,62,20,395.249481282611,3.57761762083351,3.57761766361562,-74.38125847,-3.7190629235,Cs,Na,F,0,,,
mp-1183929,CsNaO3,Cubic,Pm-3m,221,5,88.0228421489506,3.84642194033216,3.84642278663723,-16.43607156,-3.287214312,Cs,Na,O,0.839094736666669,,,
mp-27556,CsNbO3,Monoclinic,P2_1/c,14,40,769.575885775833,4.72647091158344,4.58832400269017,-303.60783079,-7.59019576975,Cs,Nb,O,0,,,
mp-1096944,CsNbO3,Cubic,Pm-3m,221,5,72.5596647635342,6.26618461205244,6.26618374547612,-36.69175933,-7.338351866,Cs,Nb,O,0.251293346750001,,,
mp-1183922,CsNdO3,Cubic,Pm-3m,221,5,104.991989128862,5.14245955138927,5.14245874957031,-29.22429292,-5.844858584,Cs,Nd,O,0.280901470749999,,,
mp-1080570,CsNiBr3,Hexagonal,P6_3/mmc,194,10,310.324911661071,4.61586223029817,4.40737667897919,-32.69665461,-3.269665461,Cs,Ni,Br,0,,,
mp-22950,CsNiCl3,Hexagonal,P6_3/mmc,194,10,267.332248416491,3.70154110632652,3.57974709718525,-36.24859267,-3.624859267,Cs,Ni,Cl,0,15.1199801184652,14.2271189104964,14.6735495144808
mp-611601,CsNiF3,Hexagonal,P6_3/mmc,194,10,259.152608211202,3.18576883092061,3.20282273526942,-44.99231094,-4.499231094,Cs,Ni,F,0.0947646200000003,25.6396141177126,25.6230536688008,25.6313338932567
mp-1194078,CsNiF3,Hexagonal,P6_3/mmc,194,30,475.632126405768,5.207387742686,5.20737007736514,-126.69799255,-4.22326641833333,Cs,Ni,F,0.0286103363333341,,,
mp-557772,CsNiF3,Hexagonal,P6_3/mmc,194,10,172.826412689078,4.77704934590246,4.50961484661745,-42.57219445,-4.257219445,Cs,Ni,F,0,26.0409487252549,24.2050642261511,25.123006475703
mp-505492,CsNiF3,Trigonal,R-3m,166,15,253.077047325582,4.89337324590857,4.90150348698499,-68.83856138,-4.58923742533333,Cs,Ni,F,0.00741919166666705,,,
mp-1183933,CsNpO3,Cubic,Pm-3m,221,5,84.664893572795,8.19637645275136,8.19637525748561,-41.5039359,-8.30078718,Cs,Np,O,0.0890512839999982,,,
mp-1183914,CsOsO3,Cubic,Pm-3m,221,5,66.6889474096607,9.2411404265259,9.24113897957299,-31.47916616,-6.295833232,Cs,Os,O,0.241042682999997,,,
mp-1183920,CsPaO3,Cubic,Pm-3m,221,5,86.9301901977265,7.86886217827183,7.72807540903155,-40.51939859,-8.103879718,Cs,Pa,O,0,,,
mp-567629,CsPbBr3,Orthorhombic,Pnma,62,20,813.530534801932,4.73398103298398,4.54651785974123,-64.40690822,-3.220345411,Cs,Pb,Br,0.00127027600000362,17.750573066771,17.527948581703,17.639260824237
mp-567681,CsPbBr3,Orthorhombic,Pnma,62,20,769.207175746688,5.00676312303922,4.78146946226117,-64.40406944,-3.220203472,Cs,Pb,Br,0,13.2605407915247,12.7149020717561,12.9877214316404
mp-1014168,CsPbBr3,Tetragonal,I4/mcm,140,10,406.141335224806,4.7412535827878,4.50482688723043,-32.11689923,-3.211689923,Cs,Pb,Br,0.00898189350000367,17.2108064466777,16.3686227965888,16.7897146216333
mp-1120725,CsPbBr3,Orthorhombic,Amm2,38,10,407.629402526683,4.72394544852976,4.48815948840638,-32.11066476,-3.211066476,Cs,Pb,Br,0.00765578850000326,,,