material_id,formula_pretty,crystal_system,space_group,number,nsites,volume,density,density,energy,energy_per_atom,A_site,B_site,X_site,energy_above_hull,k_voigt,k_reuss,k_vrh
mp-1337287,VCrO3,Triclinic,P1,1,20,210.737172152788,4.757296302084,4.757296302084,-134.8202239,-6.741011195,V,Cr,O,1.273723847125,,,
mp-770843,VCrO3,Triclinic,P1,1,20,198.978655091736,5.03842570114817,4.78008436498185,-159.55638683,-7.9778193415,V,Cr,O,0.0111874886250014,,,
mp-754036,VCrO3,Triclinic,P1,1,20,198.729354747408,5.04474626342122,4.92845800543984,-175.64697054,-8.782348527,V,Cr,O,0.0107730151250021,,,
mp-770778,VCrO3,Triclinic,P1,1,20,199.092352980375,5.03554835123636,4.7713433278881,-159.52270856,-7.976135428,V,Cr,O,0.0129727991250022,,,
mp-807999,VCrO3,Triclinic,P1,1,20,209.828635380125,4.77789491399923,4.77789483746264,-107.62009462,-5.381004731,V,Cr,O,2.633730311125,,,
mp-753988,VCrO3,Triclinic,P1,1,20,199.005311484788,5.03775081335319,4.92588841126977,-175.65862417,-8.7829312085,V,Cr,O,0.0112170361250019,,,
mp-806062,VCrO3,Triclinic,P1,1,20,209.941920754327,4.77531674565969,4.7753166691644,-107.88456945,-5.3942284725,V,Cr,O,2.620506569625,,,
mp-1105167,VCuO3,Cubic,Im-3,204,20,196.879831385299,5.48179771823992,5.48179942539785,-131.76544869,-6.5882724345,V,Cu,O,0.127358243499998,,,
mp-504580,VCuO3,Trigonal,R-3,148,10,102.935004690951,5.2424120137543,5.24241358075528,-66.49457968,-6.649457968,V,Cu,O,0.0691581409999982,143.238196461826,133.21827921022,138.228237836023
mp-2371810,VCuO3,Monoclinic,Cm,8,5,81.0195159297731,3.33023283979775,3.33175036143393,-33.24762748,-6.649525496,V,Cu,O,0.0689453249999987,,,
mp-562987,VCuO3,Triclinic,P1,1,5,80.0426988090008,3.37087400385739,3.42512108460618,-36.59637902,-7.319275804,V,Cu,O,0.0812838289999975,,,
mp-755580,VGaO3,Orthorhombic,Pnma,62,20,207.871969262245,5.38929810348612,5.52519009995595,-146.38505481,-7.3192527405,V,Ga,O,0.0920560701249986,,,
mp-755199,VGeO3,Monoclinic,C2/c,15,20,239.227161428952,4.76392050440517,4.90054268360487,-147.14948391,-7.3574741955,V,Ge,O,0.0422805113749938,,,
mp-972116,VIrO3,Cubic,Pm-3m,221,5,60.5753826445469,7.98141181689852,7.9814144935757,-32.16955503,-6.433911006,V,Ir,O,1.2196272265,,,
mp-1246912,VMoN3,Triclinic,P-1,2,20,269.42546589057,4.65699833542314,4.65699826082317,-184.6208139,-9.231040695,V,Mo,N,0.299722421733332,,,
mp-1273627,VNiO3,Trigonal,R3,146,10,102.602622410304,5.10232418217368,5.10232407283491,-66.06739477,-6.606739477,V,Ni,O,0.0570112810000154,,,
mp-1187750,VOsO3,Cubic,Pm-3m,221,5,59.8784853163666,8.01920057245928,8.0192022273103,-35.54310634,-7.108621268,V,Os,O,1.057595233,,,
mp-20032,VPbO3,Tetragonal,P4mm,99,10,145.621359381376,6.98190064763563,7.0813317666329,-37.02140819,-7.404281638,V,Pb,O,0.0220541723124938,67.984704050051,40.8269904850537,54.4058472675523
mp-1070440,VPbO3,Cubic,Pm-3m,221,5,60.8177078584336,8.35869929314855,8.35869616229091,-33.94460951,-6.788921902,V,Pb,O,0.124516472312495,,,
mp-1078971,VPS3,Monoclinic,C2/m,12,10,202.870122100729,2.91574772224479,2.91574742625572,-58.53427249,-5.853427249,V,P,S,0.104892369640617,,,
mp-972184,VPtO3,Cubic,Pm-3m,221,5,55.4519198677677,8.80470579775317,8.80470528137536,-30.90470893,-6.180941786,V,Pt,O,0.821259977499998,,,
mp-754608,VSiO3,Monoclinic,C2/c,15,20,211.806637198708,3.98345037402756,3.87637134512236,-162.40805009,-8.1204025045,V,Si,O,0.0187299222499995,,,
mp-1207852,VSnO3,Orthorhombic,Pnma,62,20,239.543440049672,6.03507788998649,6.0350781871874,-135.73313881,-6.7866569405,V,Sn,O,0.267822433250009,,,
mp-1247461,VWN3,Triclinic,P-1,2,20,294.890118811556,6.23472732622974,6.23472722635631,-193.854183,-9.69270915,V,W,N,0.3602444335,,,
mp-1378086,VZnO3,Orthorhombic,Pnma,62,20,202.897083023788,5.38021410318505,5.38021410318505,-128.19617701,-6.4098088505,V,Zn,O,0.0800122214999899,,,
mp-1016931,VZnO3,Cubic,Pm-3m,221,5,54.0257135619083,5.05143604595241,5.05143680685923,-29.71528657,-5.943057314,V,Zn,O,0.524174892999991,,,
mp-1369873,YAgO3,Orthorhombic,Pnma,62,20,262.860274564032,6.18509410322586,6.18509410322586,-130.23264143,-6.5116320715,Y,Ag,O,0.0795749219166684,,,
mp-1094009,YAgO3,Cubic,Pm-3m,221,5,86.7450469904311,4.68561488691589,4.68561563747651,-29.79063177,-5.958126354,Y,Ag,O,0.633573770916668,,,
mp-1418929,YAgO3,Cubic,Pm-3m,221,5,66.6478596036109,6.09852868437144,6.09852868437144,-30.0386524,-6.00773048,Y,Ag,O,0.583485180916667,,,
mp-1369676,YAgO3,Hexagonal,P6_3cm,185,30,410.781138214184,5.93679474152469,5.69511684182237,-197.42174036,-6.58072467866667,Y,Ag,O,0.0104686165833341,,,
mp-3792,YAlO3,Orthorhombic,Pnma,62,20,202.911749031405,5.36466564646124,5.18711020720966,-166.39352334,-8.319676167,Y,Al,O,0.0188358380500002,190.533113475809,189.065951461664,189.799532468736
mp-756214,YAlO3,Trigonal,R-3c,167,10,104.068471583273,5.22998787592027,5.22998804390115,-82.9269995,-8.29269995,Y,Al,O,0.0458074795500014,191.870407877442,191.09394679421,191.482177335826
mp-756705,YAlO3,Orthorhombic,Cmcm,63,30,397.164179974777,4.11122305652517,4.11122311032745,-248.34452484,-8.278150828,Y,Al,O,0.0604375268833337,,,
mp-7964,YAlO3,Hexagonal,P6_3/mmc,194,10,121.035136470082,4.49684992738127,4.49685005034682,-82.36256909,-8.236256909,Y,Al,O,0.102225660550001,,,
mp-759116,YbAlO3,Hexagonal,P6_3/mmc,194,10,119.116570655371,6.91501548386206,6.91488068167002,-66.92845343,-6.692845343,Yb,Al,O,0.139713358727272,,,
mp-1188667,YbAlO3,Orthorhombic,Pnma,62,20,196.084832756633,8.40139360996626,8.06617297323409,-136.34010209,-6.8170051045,Yb,Al,O,0.0155168067272724,,,
mp-758371,YbAlO3,Cubic,Pm-3m,221,5,49.0781059712359,8.39165361178767,8.06377109985107,-34.08614673,-6.817229346,Yb,Al,O,0.0163490317272723,,,
mp-1187924,YbAuO3,Cubic,Pm-3m,221,5,66.2881641908809,10.471149071965,10.4711503789975,-24.5929346,-4.91858692,Yb,Au,O,0.282714072124999,,,
mp-1187905,YbBeO3,Cubic,Pm-3m,221,5,44.6418178029999,8.557170505086,8.55716703915216,-30.30626738,-6.061253476,Yb,Be,O,0.24366642725,,,
mp-1101165,YbBiO3,Trigonal,R3c,161,10,145.302781414179,9.82861687456944,9.45493684685415,-60.18057358,-6.018057358,Yb,Bi,O,0,,,
mp-937870,YbBiO3,Triclinic,P1,1,40,635.73387890511,8.98568043464262,8.98568029070195,-99.92585312,-2.498146328,Yb,Bi,O,3.520110397,,,
mp-676312,YbBiO3,Triclinic,P1,1,40,635.733923188267,8.98567980872935,8.98568000741876,-238.48574202,-5.9621435505,Yb,Bi,O,0.0542479922499997,,,
mp-14237,YbBO3,Hexagonal,P6_3/mcm,193,30,347.726946455696,6.64305124611347,6.64020171676795,-210.2038148,-7.00679382666667,Yb,B,O,0.140566358333333,,,
mp-5364,YbBO3,Trigonal,R-3c,167,10,119.742866190107,6.43035641970901,6.10507586114965,-71.47776425,-7.147776425,Yb,B,O,0,,,
mp-1215682,YbBO3,Orthorhombic,Ama2,40,10,121.756201293806,6.32402538957238,6.32403259333146,-70.87617951,-7.087617951,Yb,B,O,0.0607334570000004,,,
mp-1100836,YbBO3,Monoclinic,P2_1/m,11,10,131.255334788694,5.86634676266307,5.86634664663014,-71.42188509,-7.142188509,Yb,B,O,0.00449155800000067,,,
mp-1187568,YbCdO3,Cubic,Pm-3m,221,5,69.2973359808194,7.99028440977551,7.99028393162319,-22.8658851,-4.57317702,Yb,Cd,O,0.464119302249999,,,
mp-1207625,YbCeO3,Orthorhombic,Pnma,62,20,288.349975820357,8.31920524994657,8.31920552735155,-154.74375679,-7.7371878395,Yb,Ce,O,0.121945316999998,,,
mp-1079021,YbCeS3,Orthorhombic,Cmcm,63,10,235.94867461702,5.76178974986914,5.76178866911668,-58.65779037,-5.865779037,Yb,Ce,S,0.0416833705000013,,,
mp-684004,YbCeS3,Orthorhombic,Pnma,62,60,1352.31792065307,6.03180643016407,6.03180694040637,-350.14048052,-5.83567467533333,Yb,Ce,S,0.0733624775000017,,,
mp-20764,YbCeSe3,Orthorhombic,Cmcm,63,10,270.480111751883,6.75359278817688,6.7535920425851,-53.26081777,-5.326081777,Yb,Ce,Se,0.0551125520000007,,,
mp-755213,YbCO3,Orthorhombic,Pnma,62,20,206.742141293051,7.48733278000858,7.03247805384632,-150.44037367,-7.5220186835,Yb,C,O,0,,,
mp-758329,YbCO3,Orthorhombic,Pnma,62,20,236.994603855538,6.53157154774796,6.53157095673531,-149.43565362,-7.471782681,Yb,C,O,0.0496034719999994,,,
mp-687081,YbCoO3,Orthorhombic,Pnma,62,20,191.93337636457,9.68885032366511,9.00292160466119,-122.54945407,-6.1274727035,Yb,Co,O,0,,,
mp-1187572,YbCrO3,Cubic,Pm-3m,221,5,53.9101235735005,8.40999967387655,8.40999860413574,-35.292248,-7.0584496,Yb,Cr,O,0.141994520500001,,,
mp-1207582,YbCrO3,Orthorhombic,Pnma,62,20,200.810789580208,9.03107094234481,8.49962432070662,-143.93346677,-7.1966733385,Yb,Cr,O,0,,,
mp-1187562,YbCuO3,Cubic,Pm-3m,221,5,52.5583540220738,8.99120968740075,8.99120889528257,-27.79042024,-5.558084048,Yb,Cu,O,0.131922478875,,,
mp-1215722,YbDyS3,Orthorhombic,Pnma,62,20,437.632774908016,6.55264299223691,6.55264255207219,-108.82213913,-5.4411069565,Yb,Dy,S,0.1760541035,,,
mp-1187715,YbEuO3,Cubic,Pm-3m,221,5,74.6994717120839,8.29168815831867,8.29168755298064,-36.98931093,-7.397862186,Yb,Eu,O,0.574574996083334,,,
mp-19793,YbFeO3,Orthorhombic,Pnma,62,20,200.997887219028,9.14985479393031,8.91948925727515,-143.54864523,-7.1774322615,Yb,Fe,O,0,155.220322966506,154.97428441387,155.097303690188
mp-1187561,YbGaO3,Cubic,Pm-3m,221,5,56.5208017173554,8.54234754251973,8.54234733890344,-29.69941846,-5.939883692,Yb,Ga,O,0.119283695650009,,,
mp-1207537,YbGaO3,Orthorhombic,Pnma,62,20,223.880939800137,8.62637671759854,8.62637702833642,-120.40646209,-6.0203231045,Yb,Ga,O,0.0378486071500097,,,
mp-1215815,YbGdS3,Orthorhombic,Pnma,62,20,442.556042459998,6.40095206819294,6.40095251141809,-147.53772571,-7.3768862855,Yb,Gd,S,0.169167471500004,,,
mp-1215831,YbGdS3,Orthorhombic,Pnma,62,20,451.986358905535,6.2674015696736,6.26740246226597,-147.42783969,-7.3713919845,Yb,Gd,S,0.173813346500004,,,
mp-865758,YbGeO3,Cubic,Pm-3m,221,5,49.9987757272848,9.75352130157549,9.35318976554212,-32.76744314,-6.553488628,Yb,Ge,O,0,,,
mp-1018646,YbPdH3,Cubic,Pm-3m,221,5,48.9195888369978,9.58870321570736,9.27039820859184,-19.70638987,-3.941277974,Yb,Pd,H,0,,,
mp-780387,YbHfO3,Orthorhombic,Pnma,62,20,242.493928487756,10.9434852813954,10.5269947992074,-176.5347941,-8.826739705,Yb,Hf,O,0,,,
mp-1205559,YbInBr3,Orthorhombic,Cmcm,63,10,318.723812836235,5.49723967952335,5.26940500957764,-33.77045381,-3.377045381,Yb,In,Br,0,,,
mp-1187569,YbInO3,Cubic,Pm-3m,221,5,69.927144395866,7.9754771294907,7.97547554983491,-27.39087597,-5.478175194,Yb,In,O,0.386666571124999,,,
mp-1358047,YBiO3,Hexagonal,P6_3cm,185,30,495.549326668083,6.95415706383339,6.95415706383339,-219.42226205,-7.31407540166667,Y,Bi,O,0.120114591875,,,
mp-1406000,YBiO3,Hexagonal,P6_3/mmc,194,10,168.433073605244,6.81997459834483,6.81997459834483,-72.78930482,-7.278930482,Y,Bi,O,0.155270851875,,,
mp-768221,YBiO3,Trigonal,R3c,161,10,160.112866076962,7.17437212670188,7.17437239600047,-74.0070574,-7.40070574,Y,Bi,O,0.0330222238750002,,,
mp-1369528,YBiO3,Orthorhombic,Pnma,62,20,313.810746514392,7.32103215882841,7.32103215882841,-145.36921671,-7.2684608355,Y,Bi,O,0.165734727875,,,
mp-754152,YBiO3,Trigonal,R-3,148,10,159.816209424512,7.18768945681628,7.18768757686576,-73.86032767,-7.386032767,Y,Bi,O,0.0476748328749999,,,
mp-1424898,YBiO3,Cubic,Pm-3m,221,5,85.6810831313583,6.70340080638228,6.70340080638228,-31.67560926,-6.335121852,Y,Bi,O,1.099079481875,,,
mp-972160,YbMgO3,Cubic,Pm-3m,221,5,58.709792396937,6.93925070574619,6.93925193365838,-27.70046293,-5.540092586,Yb,Mg,O,0.31859516425,,,
mp-1232165,YbMgS3,Monoclinic,C2/m,12,20,518.659400239755,3.75918868825624,3.75918859730971,-82.98628753,-4.1493143765,Yb,Mg,S,0.369330415999998,,,
mp-1232238,YbMgS3,Trigonal,R-3,148,10,214.14233244397,4.55243605546607,4.5584872744235,-125.65170128,-4.18839004266667,Yb,Mg,S,0.423274630999998,,,
mp-1237978,YbMgS3,Monoclinic,C2/m,12,20,422.648609742445,4.61314317732452,4.61314364833804,-83.64088484,-4.182044242,Yb,Mg,S,0.345242290499998,,,
mp-1232390,YbMgSe3,Trigonal,R-3,148,30,766.895082474375,5.64130029782903,5.64130002611499,-110.63225882,-3.68774196066667,Yb,Mg,Se,0.369134758666667,,,
mp-1232146,YbMgSe3,Monoclinic,C2/m,12,20,593.329470694579,4.86102654129278,4.86102636242016,-73.37448172,-3.668724086,Yb,Mg,Se,0.380459575999999,,,
mp-1237340,YbMgSe3,Monoclinic,C2/m,12,10,248.612264409154,5.80057929087295,5.8005795218933,-75.26824209,-3.7634121045,Yb,Mg,Se,0.292098816999999,,,
mp-22518,YbMnO3,Orthorhombic,Pnma,62,20,197.578977581977,9.2776942544089,8.89912468746143,-151.97983565,-7.5989917825,Yb,Mn,O,0,164.637982687064,164.244439000016,164.44121084354
mp-19356,YbMnO3,Hexagonal,P6_3cm,185,30,374.395162458363,7.34415476845866,7.34440318413872,-205.55446149,-6.851815383,Yb,Mn,O,0.208727086000001,115.946563912798,111.134745953073,113.540654932936
mp-1187578,YbNbO3,Cubic,Pm-3m,221,5,63.8278058626089,8.16755695722142,8.02814161121488,-40.27933202,-8.055866404,Yb,Nb,O,0.0184354944999967,,,
mp-1187576,YbNdO3,Cubic,Pm-3m,221,5,72.1455990070301,8.4074711514469,8.40747083500587,-32.71585933,-6.543171866,Yb,Nd,O,0.635569899,,,
mp-560374,YbNdS3,Orthorhombic,Cmcm,63,10,244.840822702082,5.60849864874048,5.62590059552149,-54.64455161,-5.464455161,Yb,Nd,S,0.222202572500002,,,
mp-11787,YbNdSe3,Orthorhombic,Cmcm,63,10,277.107057806432,6.64153167017481,6.64153240080889,-49.86032393,-4.986032393,Yb,Nd,Se,0.182184745500001,,,
mp-1018647,YbNiH3,Cubic,Pm-3m,221,5,40.135923884027,9.71258407063977,9.3263032338354,-20.28733317,-4.057466634,Yb,Ni,H,0,,,
mp-1187595,YbNiO3,Cubic,Pm-3m,221,5,51.8885642999184,8.95197730424109,8.95197723284316,-26.88127316,-5.376254632,Yb,Ni,O,0.0812726854999992,,,
mp-19249,YbNiO3,Orthorhombic,Pnma,62,20,192.094560926141,9.6724289896188,8.9828093990669,-109.15623072,-5.457811536,Yb,Ni,O,0,,,
mp-1100874,YBO3,Orthorhombic,Pnma,62,20,248.291431233809,3.95159204698922,3.9515928994116,-173.36142669,-8.6680713345,Y,B,O,0.0363165806666714,,,
mp-1100876,YBO3,Orthorhombic,Ama2,40,10,123.105611872279,3.98497854840696,3.98497859564529,-86.3901492,-8.63901492,Y,B,O,0.076496238666671,,,
mp-1216067,YBO3,Orthorhombic,Cmcm,63,10,125.233667199745,3.91726309281585,3.91726251195386,-86.62492108,-8.662492108,Y,B,O,0.0497425566666703,,,
mp-29205,YBO3,Orthorhombic,Cmcm,63,30,327.009754568428,4.5005375128364,4.37887255382669,-261.48139715,-8.71604657166667,Y,B,O,0,,,
mp-760457,YBO3,Orthorhombic,Ama2,40,10,121.225494406188,4.04678260874556,4.04678325153985,-86.30628239,-8.630628239,Y,B,O,0.0850593166666709,,,
mp-1187570,YbPdO3,Cubic,Pm-3m,221,5,60.8665752631035,8.93359173615497,8.93358825455651,-27.99166016,-5.598332032,Yb,Pd,O,0.193386049000001,,,
mp-1207533,YbPrO3,Orthorhombic,Pnma,62,20,303.466444349375,7.92213089928052,7.9221291674503,-140.27779362,-7.013889681,Yb,Pr,O,0.126104363499999,,,
mp-1079995,YbPrS3,Orthorhombic,Cmcm,63,10,247.492935133434,5.50365522827278,5.50365457825878,-54.65541363,-5.465541363,Yb,Pr,S,0.223460647000002,,,
mp-11786,YbPrSe3,Orthorhombic,Cmcm,63,10,280.197908238115,6.52874846596766,6.52874899093934,-49.88920942,-4.988920942,Yb,Pr,Se,0.184582835,,,
mp-1187480,YbPtO3,Cubic,Pm-3m,221,5,62.3517791064651,11.0820762371461,11.0820735443766,-28.94103437,-5.788206874,Yb,Pt,O,0.299946908000003,,,
mp-1187542,YbPuO3,Cubic,Pm-3m,221,5,79.8508538148667,9.67070559260035,9.67070429234454,-44.6736925,-8.9347385,Yb,Pu,O,0.412113574000001,,,
mp-1187535,YbReO3,Cubic,Pm-3m,221,5,60.6607946811872,11.1480004150862,11.1479998109233,-39.00339117,-7.800678234,Yb,Re,O,0.141516578333336,,,
mp-1207518,YbRhO3,Orthorhombic,Pnma,62,20,215.200658224734,9.99850416195661,9.50504064994956,-132.32939417,-6.6164697085,Yb,Rh,O,0,,,
mp-1187493,YbScO3,Cubic,Pm-3m,221,5,66.3658807262499,6.65543212307392,6.65543310140016,-36.47692243,-7.295384486,Yb,Sc,O,0.273664964,,,
mp-1187516,YbSiO3,Cubic,Pm-3m,221,5,43.7757024191295,9.44998283077612,9.15946119771842,-36.9009931,-7.38019862,Yb,Si,O,0,,,
mp-752596,YbSmO3,Orthorhombic,Pna2_1,33,20,296.646228814901,8.31591519405071,8.31594160969785,-141.16885876,-7.058442938,Yb,Sm,O,0.132498564249999,,,
mp-11788,YbSmSe3,Orthorhombic,Cmcm,63,10,272.300383400455,6.83338610556723,6.83338763900619,-49.73469952,-4.973469952,Yb,Sm,Se,0.168417076653124,,,
mp-1187515,YbSnO3,Cubic,Pm-3m,221,5,65.5324714472057,8.6089406739609,8.60894329062634,-31.28227767,-6.256455534,Yb,Sn,O,0.125842854000001,,,
mp-1187479,YbTaO3,Cubic,Pm-3m,221,5,64.1596846244388,10.4039412596354,10.4039407031519,-42.6486075,-8.5297215,Yb,Ta,O,0.0254710724000056,,,
mp-1187518,YbTcO3,Cubic,Pm-3m,221,5,59.4593315059687,8.90987808674849,8.90987719070296,-37.21388528,-7.442777056,Yb,Tc,O,0.0740273264999951,,,
mp-753164,YbTiO3,Trigonal,R-3,148,10,121.153700945444,7.3712579364449,7.37125762000826,-81.25170556,-8.125170556,Yb,Ti,O,0.0511110820000003,,,
mp-754225,YbTiO3,Orthorhombic,Pnma,62,20,215.002557708626,8.3073912156343,8.00838713916844,-163.53300815,-8.1766504075,Yb,Ti,O,0,,,
mp-865218,YbTiO3,Cubic,Pm-3m,221,5,57.2037390358261,7.80591614006613,7.80591376628717,-40.39920951,-8.079841902,Yb,Ti,O,0.0972200479999987,,,
mp-1206321,YbTlBr3,Orthorhombic,Cmcm,63,10,318.904348518275,6.42686297499129,6.15854353442074,-33.93565431,-3.393565431,Yb,Tl,Br,0,,,
mp-972058,YbTmO3,Cubic,Pm-3m,221,5,76.3129142898363,8.48564660028189,8.48564382360846,-33.88410959,-6.776821918,Yb,Tm,O,0.471624266375,,,
mp-703673,YbVO3,Orthorhombic,Pnma,62,20,205.663912271173,8.78390208928165,8.30732110646517,-149.08792751,-7.4543963755,Yb,V,O,0,,,
mp-1187485,YbWO3,Cubic,Pm-3m,221,5,65.5603191837284,10.2549236593948,10.2549236477159,-35.12118081,-7.024236162,Yb,W,O,0.222409862999999,,,
mp-1187797,YbZnO3,Cubic,Pm-3m,221,5,56.2573041980264,8.45502238151807,8.45502509258059,-25.32717652,-5.065435304,Yb,Zn,O,0.218709446249997,,,
mp-1273178,YCoO3,Triclinic,P-1,2,20,226.938677285666,5.73186377760483,5.73186377760483,-150.75468977,-7.5377344885,Y,Co,O,0.0109509950000017,,,
mp-1387356,YCoO3,Hexagonal,P6_3/mmc,194,10,128.096994792425,5.07733060474649,5.07733060474649,-74.43045361,-7.443045361,Y,Co,O,0.105640122500001,,,
mp-22668,YCoO3,Orthorhombic,Pnma,62,20,205.826268221159,6.31980356692655,6.14783096682361,-158.76665429,-7.9383327145,Y,Co,O,0,,,
mp-1435972,YCoO3,Cubic,Pm-3m,221,5,54.260484745819,5.99322688584851,5.99322688584851,-36.59177477,-7.318354954,Y,Co,O,0.230330529500002,,,
mp-1288734,YCoO3,Monoclinic,P2_1/c,14,20,225.359941125355,5.77201776667004,5.77201776667004,-150.67851291,-7.5339256455,Y,Co,O,0.0147598380000016,,,
mp-1330514,YCoO3,Hexagonal,P6_3cm,185,30,376.258135898909,5.1857280679005,5.1857280679005,-222.00630082,-7.40021002733333,Y,Co,O,0.0220174458333329,,,
mp-18725,YCrO3,Orthorhombic,Pnma,62,20,219.380319510976,5.71931118453689,5.4803031948123,-171.15865594,-8.557932797,Y,Cr,O,0,184.216667582098,183.111368964646,183.664018273372
mp-18770,YCrO3,Cubic,Pm-3m,221,5,57.2392882795695,5.48008349142176,5.46022629300509,-41.27859495,-8.25571899,Y,Cr,O,0.303307565499999,,,
mp-1387900,YCrO3,Hexagonal,P6_3/mmc,194,10,129.790389741671,4.83357942580998,4.83357942580998,-77.57479716,-7.757479716,Y,Cr,O,0.2131561375,,,
mp-1336975,YCrO3,Hexagonal,P6_3cm,185,30,385.454258113577,4.88269731869206,4.88269731869206,-243.1036256,-8.10345418666667,Y,Cr,O,0.157926261166667,,,
mp-1432347,YCuO3,Cubic,Pm-3m,221,5,54.1025362651734,6.15230194191815,6.15230194191815,-34.43613767,-6.887227534,Y,Cu,O,0.222443172704543,,,
mp-1340758,YCuO3,Orthorhombic,Pnma,62,20,223.453199099817,5.95838663787914,5.95838663787914,-141.72636926,-7.086318463,Y,Cu,O,0.0233522437045428,130.929314652468,109.757657137081,120.343485894774
mp-1333124,YCuO3,Hexagonal,P6_3cm,185,30,365.10076528719,5.47008120344691,5.26987828834408,-212.93312613,-7.097770871,Y,Cu,O,0.0118998357045426,,,
mp-755109,YErO3,Orthorhombic,Pnma,62,20,282.878361157389,7.14193372833059,7.14193383966162,-173.59428137,-8.6797140685,Y,Er,O,0.0975335148749998,,,
mp-1416093,YFeO3,Cubic,Pm-3m,221,5,58.5567087019943,5.46593780063558,5.46593780063558,-37.95561919,-7.591123838,Y,Fe,O,0.340555980875001,,,
mp-1376289,YFeO3,Hexagonal,P6_3cm,185,30,376.571910928106,5.09970050797777,4.92144448432471,-226.88642924,-7.56288097466667,Y,Fe,O,0.0137831442083343,,,
mp-1275986,YFeO3,Hexagonal,P6_3/mmc,194,20,252.682521786559,5.06671099072531,4.89233462164083,-78.98782288,-7.898782288,Y,Fe,O,0.00871173587500174,,,
mp-17853,YGaO3,Hexagonal,P6_3cm,185,30,382.22568252926,5.38601623738425,5.38601555688634,-227.66311943,-7.58877064766667,Y,Ga,O,0.026932728216666,,,