material_id,formula_pretty,crystal_system,space_group,number,nsites,volume,density,density,energy,energy_per_atom,A_site,B_site,X_site,energy_above_hull,k_voigt,k_reuss,k_vrh
mp-22535,HfPbO3,Cubic,Pm-3m,221,5,71.7569387471012,10.0360496336325,10.036049400412,-41.24624961,-8.249249922,Hf,Pb,O,0.0402784003124967,167.439973168096,167.439973168096,167.439973168096
mp-22147,HfPbS3,Orthorhombic,Pnma,62,20,482.243048863212,6.6372246940195,6.44840631079804,-127.39504623,-6.3697523115,Hf,Pb,S,0.00505923549999832,,,
mp-776083,HfSnO3,Trigonal,R-3,148,10,173.896665412063,6.5925944636341,6.59256459761264,-83.44712011,-8.344712011,Hf,Sn,O,0.0686866264999964,45.109645552216,6.44276757199327,25.7762065621046
mp-8725,HfSnS3,Orthorhombic,Pnma,62,20,492.467686032705,5.30591374526632,5.18750581864955,-128.10892255,-6.4054461275,Hf,Sn,S,0,,,
mp-1184597,HfThO3,Cubic,Pm-3m,221,5,69.9526582257021,10.8845151435894,10.8845175052104,-45.92116553,-9.184233106,Hf,Th,O,0.668413525249999,,,
mp-1016819,HfZnO3,Cubic,Pm-3m,221,5,67.7504521495989,7.15429474862956,7.15429463402566,-36.20292649,-7.240585298,Hf,Zn,O,0.687028814499997,,,
mp-4891,HoAlO3,Orthorhombic,Pnma,62,20,200.976749462227,7.92887785958482,7.68665722858912,-159.55392236,-7.977696118,Ho,Al,O,0.0156946146499983,,,
mp-1184610,HoBeO3,Cubic,Pm-3m,221,5,45.2231109445882,8.14939968617376,8.14940113392354,-35.55171021,-7.110342042,Ho,Be,O,0.365900658999999,,,
mp-754300,HoBiO3,Trigonal,R-3,148,10,157.147014248277,8.91644359338751,8.91644314632681,-70.38673884,-7.038673884,Ho,Bi,O,0.0496802078749994,,,
mp-1178162,HoBiO3,Trigonal,R3c,161,10,157.658443531903,8.88751948214238,8.88751966114458,-70.56483659,-7.056483659,Ho,Bi,O,0.0316550008750003,,,
mp-770830,HoBiO3,Orthorhombic,Pnma,62,20,303.25767922055,9.24093656599532,9.24093615020836,-141.04999878,-7.052499939,Ho,Bi,O,0.0358601403750001,,,
mp-753056,HoBO3,Orthorhombic,Ama2,40,10,118.517985723419,6.26956679080514,6.26956750913857,-82.7880539,-8.27880539,Ho,B,O,0.0892337640000065,,,
mp-780393,HoBO3,Triclinic,P-1,2,60,620.027111064085,7.19055422717988,7.19055408985899,-498.54606081,-8.3091010135,Ho,B,O,0.0591099376666744,,,
mp-754409,HoBO3,Trigonal,R-3c,167,10,119.955862864517,6.19441525958512,6.19441574167579,-83.41568566,-8.341568566,Ho,B,O,0.0265023230000061,,,
mp-752713,HoBO3,Orthorhombic,Cmcm,63,30,321.839838328832,6.92633110241745,6.72327417362791,-251.05237834,-8.36841261133333,Ho,B,O,0,,,
mp-850193,HoBO3,Triclinic,P-1,2,20,223.983121981949,6.63493231837841,6.6349316868373,-166.70136659,-8.3350683295,Ho,B,O,0.0330135390000077,,,
mp-1184546,HoBO3,Cubic,Pm-3m,221,5,41.8843783630594,8.87032894416806,8.87032880207519,-37.48586081,-7.497172162,Ho,B,O,0.871064865000005,,,
mp-1188609,HoCoO3,Orthorhombic,Pnma,62,20,268.296874846907,6.73041009110478,6.73040942613778,-135.06693757,-6.7533468785,Ho,Co,O,0.420407865500001,,,
mp-20570,HoCoO3,Orthorhombic,Pnma,62,20,203.438721450834,8.87612732229004,8.65716565711078,-152.03797598,-7.601898799,Ho,Co,O,0,,,
mp-756834,HoCrO3,Orthorhombic,Pnma,62,20,216.869955996226,8.11394421497122,7.92058508383148,-172.48385585,-8.6241927925,Ho,Cr,O,0,,,
mp-1184736,HoCuO3,Cubic,Pm-3m,221,5,53.378610484461,8.60076231308288,8.60076039357612,-32.52617148,-6.505234296,Ho,Cu,O,0.252366339000002,,,
mp-1184778,HoErO3,Cubic,Pm-3m,221,5,76.5704447149681,8.24490744364657,8.24490533111494,-37.60895877,-7.521791754,Ho,Er,O,0.908881398875002,,,
mp-770415,HoErO3,Hexagonal,P6_3cm,185,30,446.603531716851,8.48156610629797,8.4816235090955,-250.15915777,-8.33863859233333,Ho,Er,O,0.0929438422083333,,,
mp-19785,HoFeO3,Orthorhombic,Pnma,62,20,223.937255010087,7.9720353812052,8.01108618425937,-159.84853855,-7.9924269275,Ho,Fe,O,0.0122662793749999,178.359430937743,175.666532553815,177.012981745779
mp-755416,HoGaO3,Orthorhombic,Pnma,62,20,225.608037858187,8.3215810154583,8.32158144335141,-144.37972947,-7.2189864735,Ho,Ga,O,0.049537561350002,,,
mp-769045,HoGaO3,Hexagonal,P6_3cm,185,30,364.401748977216,7.72807308161219,7.47557511506654,-217.4697482,-7.24899160666667,Ho,Ga,O,0.0188426235166679,,,
mp-982558,HoGeO3,Cubic,Pm-3m,221,5,59.5439201696828,7.96383043474159,7.96382867888138,-33.75478519,-6.750957038,Ho,Ge,O,0.680051747031253,,,
mp-768267,HoInO3,Hexagonal,P6_3cm,185,30,415.993308783567,7.84968251523516,7.60635885051665,-210.85382318,-7.02846077266667,Ho,In,O,0.0098041442083332,,,
mp-776984,HoInO3,Orthorhombic,Pnma,62,20,265.142536355865,8.21046532755111,8.21046508954817,-139.33176857,-6.9665884285,Ho,In,O,0.0717123543750002,,,
mp-770472,HoLuO3,Orthorhombic,Pnma,62,20,269.372473109462,9.56468427948655,9.56468487527024,-167.47189441,-8.3735947205,Ho,Lu,O,0.082408869,,,
mp-1232153,HoMgS3,Trigonal,R-3,148,30,689.299017259755,4.12565390593206,4.12565379566167,-151.83875904,-5.061291968,Ho,Mg,S,0.232641046166667,,,
mp-1232139,HoMgS3,Monoclinic,C2/m,12,10,252.615784678619,3.75248282885511,3.74030545241765,-98.79364734,-4.939682367,Ho,Mg,S,0.3555101385,,,
mp-1232140,HoMgSe3,Monoclinic,C2/m,12,10,287.637892539313,4.91994381887673,4.87351754826347,-89.02173183,-4.4510865915,Ho,Mg,Se,0.328701521499999,,,
mp-1232172,HoMgSe3,Trigonal,R-3,148,30,792.682854857624,5.35584539062991,5.35584577044826,-137.03219628,-4.567739876,Ho,Mg,Se,0.212735472166666,,,
mp-1181443,HoMnO3,Orthorhombic,Pnma,62,20,263.687630771048,6.74742147772046,6.74742145356476,-154.42780428,-7.721390214,Ho,Mn,O,0.311694742166667,,,
mp-19056,HoMnO3,Hexagonal,P6_3cm,185,30,368.50491952318,7.24228425054395,6.94575643810168,-241.13336093,-8.03777869766667,Ho,Mn,O,0,,,
mp-22081,HoMnO3,Orthorhombic,Pnma,62,20,232.649380296263,7.64760938115583,7.82384758754966,-167.70115634,-8.385057817,Ho,Mn,O,0.0285990686666668,,,
mp-1193069,HoMnO3,Orthorhombic,Cmc2_1,36,30,382.682502851232,6.97397282349278,6.97397177169205,-231.69740452,-7.72324681733333,Ho,Mn,O,0.315906738666667,,,
mp-18974,HoNiO3,Orthorhombic,Pnma,62,20,207.609734110998,8.6901283590827,8.31471543736233,-131.91281189,-6.5956405945,Ho,Ni,O,0,,,
mp-1212108,HoRhO3,Orthorhombic,Pnma,62,20,225.457525330689,9.30471897980934,8.97277306925655,-150.66155141,-7.5330775705,Ho,Rh,O,0,,,
mp-1184833,HoRhO3,Cubic,Pm-3m,221,5,61.0436076475638,8.59147663420015,8.59147505645547,-34.66198907,-6.932397814,Ho,Rh,O,0.600743013999999,,,
mp-1207180,HoSbO3,Cubic,Pm-3m,221,5,76.5650352812101,7.25870967813588,7.25871002340331,-30.82691584,-6.165383168,Ho,Sb,O,1.07673455255,,,
mp-31121,HoScO3,Orthorhombic,Pnma,62,20,248.614336115793,6.88982269798797,6.88982148075563,-174.15014243,-8.7075071215,Ho,Sc,O,0.0366798722499961,,,
mp-1184813,HoSiO3,Cubic,Pm-3m,221,5,51.048295860736,7.83989336098757,7.83989482045634,-36.72027361,-7.344054722,Ho,Si,O,0.75705717325001,,,
mp-973977,HoSnO3,Cubic,Pm-3m,221,5,82.4171441263817,6.68184665080049,6.68184551084814,-32.05067497,-6.410134994,Ho,Sn,O,0.869262273718753,,,
mp-755236,HoTiO3,Orthorhombic,Pnma,62,20,232.765069703812,7.44202985276651,7.44203019597892,-173.78002599,-8.6890012995,Ho,Ti,O,0.0583830685000066,,,
mp-1178178,HoTmO3,Orthorhombic,Pnma,62,20,274.62269526894,9.23591519808733,9.2359154792741,-166.70472881,-8.3352364405,Ho,Tm,O,0.0960075911249998,,,
mp-19024,HoVO3,Orthorhombic,Pnma,62,20,222.630836508617,7.87252087062188,7.55105815270559,-164.96026921,-8.2480134605,Ho,V,O,0,,,
mp-1184913,InAsO3,Cubic,Pm-3m,221,5,60.8465703416725,6.48800585293081,6.48800416543103,-26.14427121,-5.228854242,In,As,O,0.61460744975,,,
mp-561102,InBiO3,Orthorhombic,Pnma,62,20,283.951791516088,8.69700840178111,8.69700842188991,-113.27900504,-5.663950252,In,Bi,O,0.0399234684999996,,,
mp-556892,InBiO3,Orthorhombic,Pna2_1,33,20,291.074932701556,8.48417654380517,8.48417582186712,-113.4932971,-5.674664855,In,Bi,O,0.0289430769999992,,,
mp-545379,InBiO3,Cubic,Pm-3m,221,5,72.6567808935027,8.49724927992595,8.49724860677915,-26.04127776,-5.208255552,In,Bi,O,0.496026063,,,
mp-1078776,InBiS3,Monoclinic,P2_1/m,11,10,254.966924744591,5.47063466457686,5.34451866818851,-42.43829537,-4.243829537,In,Bi,S,0.00333554225000032,,,
mp-1223842,InBiSe3,Trigonal,R3m,160,5,146.708245683838,6.34612173745968,6.3461227077452,-19.27665739,-3.855331478,In,Bi,Se,0.0253778948333334,,,
mp-7027,InBO3,Trigonal,R-3c,167,10,105.353353101549,5.47329041053812,5.29485734079813,-69.01772932,-6.901772932,In,B,O,0,,,
mp-755167,InCoO3,Orthorhombic,Pnma,62,20,202.450988829577,7.2753121241089,7.20185901990603,-122.34638492,-6.117319246,In,Co,O,0.0764179970000098,,,
mp-975443,InCuO3,Cubic,Pm-3m,221,5,54.3254369445951,6.91910267900606,6.91910426718924,-24.15640523,-4.831281046,In,Cu,O,0.507609895625,,,
mp-1224030,InCuO3,Trigonal,R3m,160,5,58.7380423098166,6.39931569933687,6.39894714177108,-26.48046394,-5.296092788,In,Cu,O,0.0418181916250004,,,
mp-617426,InFeBr3,Orthorhombic,Pnma,62,20,523.767468069695,5.20416987307275,5.20417024722059,-70.66160057,-3.5330800285,In,Fe,Br,0.264136746000006,,,
mp-21094,InFeO3,Hexagonal,P6_3/mmc,194,10,123.564294573649,5.87702889742504,5.9371388460537,-65.64214853,-6.564214853,In,Fe,O,0.0474833679999991,166.54355501945,164.896350389061,165.719952704255
mp-8098,InGaO3,Hexagonal,P6_3/mmc,194,10,115.84663498527,6.66640729210662,6.43864451340972,-58.42671873,-5.842671873,In,Ga,O,0.00200493749999797,169.99029863925,169.774787860109,169.88254324968
mp-504951,InGaS3,Hexagonal,P6_1,169,30,718.61959716998,3.89223809567846,3.75547680092679,-127.69560602,-4.25652020066667,In,Ga,S,0,,,
mp-1224507,InGaS3,Trigonal,P3m1,156,10,253.325818141162,3.68042309166648,3.68139177923744,-39.57437568,-3.957437568,In,Ga,S,0.298505932333333,,,
mp-19885,InGaS3,Orthorhombic,Cmc2_1,36,10,234.95748088707,3.96814856578309,3.96814867790409,-42.44363411,-4.244363411,In,Ga,S,0.0171784343333332,,,
mp-1224212,InGaS3,Triclinic,P1,1,25,609.214872794256,3.8260153865158,3.82601487306607,-104.51164304,-4.1804657216,In,Ga,S,0.0760103657333335,,,
mp-504952,InGaSe3,Hexagonal,P6_1,169,30,819.59280468155,5.12292955712956,4.90965575766801,-114.45240576,-3.815080192,In,Ga,Se,0,,,
mp-998569,InGeCl3,Trigonal,R3c,161,10,343.06494974606,2.8443279168703,2.8443274792213,-34.03088127,-3.403088127,In,Ge,Cl,0.0193294997500004,,,
mp-1184799,InOsO3,Cubic,Pm-3m,221,5,62.7253727346416,9.34624988032805,9.34624768412527,-32.4340719,-6.48681438,In,Os,O,0.467179732999994,,,
mp-998535,InPbCl3,Monoclinic,Cm,8,5,190.936865740178,3.72550759632179,3.7259797788291,-17.0028724,-3.40057448,In,Pb,Cl,0.0177251736250006,,,
mp-675295,InPF3,Trigonal,R3,146,5,123.864734984634,2.71857594157916,2.718576368091,-20.64553254,-4.129106508,In,P,F,0.639617179333333,,,
mp-1184773,InPtO3,Cubic,Pm-3m,221,5,65.4439086203799,9.08117006719981,9.08117167943746,-25.27626745,-5.05525349,In,Pt,O,0.768916963375001,,,
mp-1203220,InRhO3,Monoclinic,P2_1/c,14,40,459.513815845227,7.6818802565359,7.67850246368591,-243.33377778,-6.0833444445,In,Rh,O,0.0406221204999939,,,
mp-1105819,InRhO3,Orthorhombic,Pnma,62,20,231.011006181904,7.64017734022457,7.64017614074722,-120.99987074,-6.049993537,In,Rh,O,0.0739175047499945,,,
mp-1212207,InRhO3,Orthorhombic,Pnma,62,20,243.508803332913,7.24805440549306,7.24805492836862,-115.79755352,-5.789877676,In,Rh,O,0.334417064749995,,,
mp-1184765,InSbO3,Cubic,Pm-3m,221,5,69.2358588741692,6.82521897191162,6.82521851352551,-26.74978076,-5.349956152,In,Sb,O,0.4582018405,,,
mp-21365,InSbS3,Orthorhombic,Pnma,62,20,490.594851254503,4.50540861076442,4.40565660252692,-85.10066266,-4.255033133,In,Sb,S,0,,,
mp-1212011,InSbSe3,Orthorhombic,Pnma,62,20,576.068383027277,5.45904290919626,5.45904316391179,-77.04000118,-3.852000059,In,Sb,Se,0.00717870183333424,,,
mp-1184751,InSiO3,Cubic,Pm-3m,221,5,49.1493200524,6.4497276949587,6.44972500331254,-31.27504303,-6.255008606,In,Si,O,0.561966570666667,,,
mp-998555,InSnBr3,Trigonal,R3c,161,10,392.53757348437,4.00386388952432,4.00386406955321,-30.73507004,-3.073507004,In,Sn,Br,0,,,
mp-998398,InSnBr3,Triclinic,P1,1,5,210.543344548544,3.7324072606655,3.73240738527833,-15.28880286,-3.057760572,In,Sn,Br,0.0102726300000002,,,
mp-1224379,InSnBr3,Orthorhombic,Fmm2,42,40,1271.90242381693,4.94272826696581,4.94272837377812,-121.17702237,-3.02942555925,In,Sn,Br,0.0431007732499999,,,
mp-998567,InSnCl3,Trigonal,R-3,148,10,369.280060030845,3.05673499772683,3.05673508581523,-33.96620037,-3.396620037,In,Sn,Cl,0,,,
mp-1224255,InSnCl3,Orthorhombic,Fmm2,42,40,1116.47835406295,4.04411345495843,4.04411322910832,-133.94853995,-3.34871349875,In,Sn,Cl,0.0473825660000005,,,
mp-1185008,KAcO3,Cubic,Pm-3m,221,5,100.809516685197,5.17381221617257,5.17381250014572,-29.12981941,-5.825963882,K,Ac,O,0.2072511535,,,
mp-998568,KAgBr3,Tetragonal,P4mm,99,5,152.966546009884,4.19761557159564,4.03757385311716,-13.12548502,-2.625097004,K,Ag,Br,0.00471818699999993,,,
mp-998553,KAgBr3,Trigonal,R3c,161,10,300.450171840566,4.27421792792327,4.09394402511284,-26.33688726,-2.633688726,K,Ag,Br,0,,,
mp-2464440,KAgCl3,Cubic,Pm-3m,221,5,134.879118368739,3.11876956495197,3.11876956495197,-14.61086688,-2.922173376,K,Ag,Cl,0.00379570100000004,,,
mp-998554,KAgCl3,Tetragonal,P4mm,99,5,129.495826508728,3.24842043683644,3.10530581242762,-14.59732786,-2.919465572,K,Ag,Cl,0.00168738299999971,,,
mp-998750,KAgCl3,Trigonal,R3c,161,10,255.934816332677,3.28721895163484,3.14281546676115,-29.24304273,-2.924304273,K,Ag,Cl,0,,,
mp-13819,KAgF3,Cubic,Pm-3m,221,5,80.2475375577212,4.22052061893751,3.97761314900669,-75.52441301,-3.7762206505,K,Ag,F,0.00187714200000144,,,
mp-1205357,KAgF3,Orthorhombic,Pnma,62,20,315.282400870771,4.29692727467076,3.98345326352513,-75.54923294,-3.777461647,K,Ag,F,0,,,
mp-976229,KAgO3,Cubic,Pm-3m,221,5,73.698716327076,4.39283771946796,4.39283812058801,-19.19594905,-3.83918981,K,Ag,O,0.32580612625,,,
mp-1097006,KAlH3,Cubic,Pm-3m,221,5,63.1248040042857,1.81781672926063,1.81781630294729,-15.04824608,-3.009649216,K,Al,H,0.184462262166668,,,
mp-1184936,KAlO3,Cubic,Pm-3m,221,5,57.8265434202118,3.2758492645817,3.27584923752001,-27.9374028,-5.58748056,K,Al,O,0.288346990368052,,,
mp-1184937,KAsO3,Cubic,Pm-3m,221,5,56.7768773994085,4.7385026593433,4.73850106700794,-26.11450237,-5.222900474,K,As,O,0.426479494250001,,,
mp-1195114,KAsO3,Monoclinic,P2_1/c,14,120,2249.28207787937,2.87064805815681,2.87064819487895,-677.84567723,-5.64871397691667,K,As,O,0,,,
mp-1192552,KAsO3,Triclinic,P-1,2,30,525.977690094869,3.06899767362125,2.90215117894627,-169.35318358,-5.64510611933333,K,As,O,0.00375627424999969,,,
mp-1105278,KAsO3,Orthorhombic,P2_12_12_1,19,20,351.174347749705,3.06443094457524,2.72304639146824,-112.597991,-5.62989955,K,As,O,0.018912803750001,,,
mp-1194970,KAsO3,Orthorhombic,Pbcn,60,40,642.394532183715,3.35043181182451,3.1218265790644,-225.51756972,-5.637939243,K,As,O,0.0108407797500005,,,
mp-1112174,KAuBr3,Cubic,Pm-3m,221,5,158.637209162593,4.98020661186357,4.9802076155274,-26.45291548,-2.645291548,K,Au,Br,0.0463294751249999,,,
mp-1110854,KAuCl3,Cubic,Pm-3m,221,5,135.675910187591,4.19092977540847,4.19093005379937,-29.09629805,-2.909629805,K,Au,Cl,0.0626134846666657,,,
mp-1111868,KAuF3,Cubic,Pm-3m,221,5,90.180581563584,5.3962582735514,5.3962583617553,-36.37294227,-3.637294227,K,Au,F,0.1607116,,,
mp-31045,KAuI3,Monoclinic,P2_1/c,14,20,804.897450726788,5.08976355576736,4.85717740086766,-49.05986167,-2.4529930835,K,Au,I,0,,,
mp-1184942,KAuO3,Cubic,Pm-3m,221,5,71.8761021994909,6.56265168836788,6.56265219881858,-19.93833942,-3.987667884,K,Au,O,0.364025409249999,,,
mp-1223538,KBaN3,Orthorhombic,F222,22,20,609.312468652378,2.38128802071839,2.3812878380188,-80.77444961,-4.0387224805,K,Ba,N,1.92059993793333,,,
mp-973447,KBaO3,Cubic,Pm-3m,221,5,126.032655694263,2.9568843658832,2.9569400015648,-22.05557593,-4.411115186,K,Ba,O,0.573607507,,,
mp-1211678,KBeF3,Orthorhombic,P2_12_12_1,19,20,289.14423988008,2.41446424243066,2.28471893343753,-105.00675741,-5.2503378705,K,Be,F,0,,,
mp-974757,KBeH3,Monoclinic,P2_1/c,14,20,328.104285599741,1.03516485265183,1.03516480255889,-61.99332558,-3.099666279,K,Be,H,0.00787758066666733,,,
mp-973396,KBeO3,Cubic,Pm-3m,221,5,53.6497743379531,2.9747044245727,2.97470494479751,-23.6029003,-4.72058006,K,Be,O,0.635952091,,,
mp-676536,KBiO3,Triclinic,P1,1,90,1606.24971963941,5.50951110329684,5.5095110454871,-459.08815009,-5.10097944544444,K,Bi,O,0.0308720523888866,,,
mp-863367,KBiO3,Monoclinic,C2/m,12,30,512.627058079932,5.7544437198767,5.51571553327994,-153.66664845,-5.122221615,K,Bi,O,0.00977977183332968,,,
mp-29799,KBiO3,Cubic,Pn-3,201,60,1020.09449854709,5.7835495813543,5.53464325289596,-307.91066349,-5.1318443915,K,Bi,O,0,,,
mp-982040,KBiO3,Cubic,Pm-3m,221,5,78.6340106643293,6.25234876123198,6.25234844216692,-25.17871582,-5.035743164,K,Bi,O,0.0928686834999972,,,
mp-22958,KBrO3,Trigonal,R3m,160,5,83.9596761670273,3.3029052403687,3.00905027280503,-20.7446228,-4.14892456,K,Br,O,0,16.3309426576145,14.2045353139006,15.2677389857575
mp-998599,KCaBr3,Orthorhombic,Cmcm,63,10,324.25378526995,3.26612366045821,3.13849701209098,-35.587451,-3.5587451,K,Ca,Br,0,,,
mp-998749,KCaBr3,Monoclinic,Cm,8,5,187.13158373637,2.82970126933599,2.82970714122911,-17.51931725,-3.50386345,K,Ca,Br,0.0545503660000004,,,
mp-1211648,KCaBr3,Orthorhombic,Pnma,62,20,671.370218918673,3.15490002451721,3.02693611279922,-71.15879344,-3.557939672,K,Ca,Br,0.000388169000000271,,,
mp-1211589,KCaCl3,Cubic,Pm-3m,221,5,156.89807138305,1.96362269572572,1.95545978073819,-19.64555937,-3.929111874,K,Ca,Cl,0.0457331545000006,,,
mp-998421,KCaCl3,Trigonal,R-3,148,10,310.68155861108,1.98330802292018,1.92553972478912,-39.70622032,-3.970622032,K,Ca,Cl,0.00415963150000032,,,
mp-1211643,KCaCl3,Orthorhombic,Pnma,62,20,572.346364906513,2.15316202057944,2.096028950508,-79.49878923,-3.9749394615,K,Ca,Cl,0,,,
mp-998601,KCaCl3,Monoclinic,Cm,8,5,158.084785252032,1.94888213557156,1.94888201444192,-19.64555073,-3.929110146,K,Ca,Cl,0.0456661785000003,,,
mp-4950,KCaF3,Cubic,Pm-3m,221,5,90.0193565751233,2.51188322213785,2.51188316508609,-25.96956314,-5.193912628,K,Ca,F,0.0238642845000001,,,
mp-643749,KCaF3,Monoclinic,P2_1/m,11,20,346.486482134956,2.61041192782378,2.61041189789667,-104.31750622,-5.215875311,K,Ca,F,0.00202673699999956,,,
mp-5926,KCaF3,Orthorhombic,Pnma,62,20,332.233977300549,2.72239598473269,2.60913236934205,-104.35455409,-5.2177277045,K,Ca,F,0,,,
mp-1105914,KCaH3,Orthorhombic,Pnma,62,20,356.487805272486,1.53157003993307,1.53157007399249,-60.60548592,-3.030274296,K,Ca,H,0.0367476294999998,,,
mp-1205722,KCaI3,Orthorhombic,Cmcm,63,10,408.304807495354,3.74066048581137,3.6255546492742,-31.07627338,-3.107627338,K,Ca,I,0.0115255929999991,,,
mp-982885,KCaO3,Cubic,Pm-3m,221,5,95.3609369714325,2.21451500197177,2.21451709915019,-23.26849844,-4.653699688,K,Ca,O,0.439582295999998,,,
mp-23442,KCdCl3,Orthorhombic,Pnma,62,20,519.021818498511,3.30005692189572,3.13226201176958,-59.36117685,-2.9680588425,K,Cd,Cl,0,,,
mp-9628,KCdF3,Orthorhombic,Pnma,62,20,324.862947397398,4.26308862277899,4.04376110598218,-79.79994309,-3.9899971545,K,Cd,F,0,,,
mp-10175,KCdF3,Cubic,Pm-3m,221,5,84.1479591380004,4.11453690974569,3.87311645762651,-19.82163577,-3.964327154,K,Cd,F,0.0255770150000023,,,
mp-1211584,KCdN3,Cubic,Pm-3m,221,5,95.2604072541097,3.373522521045,3.37352144765068,-17.65694539,-3.531389078,K,Cd,N,1.993405068,,,
mp-1184992,KCdO3,Cubic,Pm-3m,221,5,81.7384237938431,4.05305096982619,4.05305107300522,-18.52698434,-3.705396868,K,Cd,O,0.402591433999999,,,
mp-556084,KClO3,Orthorhombic,Pnma,62,20,370.207974600109,2.19874498988966,2.19874516499715,-85.92436017,-4.2962180085,K,Cl,O,0.0509068493749991,16.3915732628365,15.8385286926511,16.1150509777438
mp-550506,KClO3,Trigonal,R3m,160,5,89.1498594092199,2.28265342975124,2.28270934150782,-21.41876847,-4.283753694,K,Cl,O,0.0619933578749992,,,
mp-23022,KClO3,Monoclinic,P2_1/m,11,10,185.027807315655,2.1996502611646,2.19965016618349,-42.95646558,-4.295646558,K,Cl,O,0.0509303468749991,,,
mp-1105868,KCO3,Monoclinic,P2_1/c,14,20,323.29876322665,2.03615226657661,2.03615246122929,-128.48785808,-6.424392904,K,C,O,0.0118344450000025,,,
mp-1106094,KCO3,Monoclinic,P2_1/c,14,20,350.455654779512,1.8783703459986,1.90020990305042,-128.71720718,-6.435860359,K,C,O,0,,,
mp-1001793,KCoCl3,Trigonal,R3c,161,10,234.190101656946,2.89848630994986,2.89848625533135,-37.96443395,-3.796443395,K,Co,Cl,0.0873904744166651,,,