material_id,formula_pretty,crystal_system,space_group,number,nsites,volume,density,density,energy,energy_per_atom,A_site,B_site,X_site,energy_above_hull,k_voigt,k_reuss,k_vrh
mp-1040467,RbOsO3,Cubic,Pm-3m,221,5,62.764690204891,8.56388921776702,8.56389259595452,-32.61063162,-6.522126324,Rb,Os,O,0.0905591689999996,,,
mp-998602,RbOsO3,Trigonal,R-3,148,10,160.1466519302,6.71272046244749,6.49258404673931,-66.06278295,-6.606278295,Rb,Os,O,0,,,
mp-1206844,RbPaO3,Cubic,Pm-3m,221,5,84.092436557564,7.19767004461594,7.05499374374787,-40.95662884,-8.191325768,Rb,Pa,O,0,,,
mp-998176,RbPbBr3,Monoclinic,Cm,8,5,214.225807937251,4.12666179057024,4.12666679765783,-15.84211482,-3.168422964,Rb,Pb,Br,0.039393365,,,
mp-998603,RbPbBr3,Orthorhombic,Cmcm,63,10,367.803585192766,4.80711712315349,4.58131816851939,-32.13206758,-3.213206758,Rb,Pb,Br,0,,,
mp-998605,RbPbCl3,Monoclinic,Cm,8,5,186.764580444906,3.54777971520058,3.54778488245691,-17.53571069,-3.507142138,Rb,Pb,Cl,0.0381325860000001,,,
mp-998604,RbPbCl3,Orthorhombic,Cmcm,63,10,321.327554587343,4.1241380053529,3.9337326787939,-35.4620943,-3.54620943,Rb,Pb,Cl,0,,,
mp-1209191,RbPbCl3,Cubic,Pm-3m,221,5,187.451335788381,3.53478190610716,3.53478264623534,-17.51631462,-3.503262924,Rb,Pb,Cl,0.0383528200000001,,,
mp-21043,RbPbF3,Cubic,Pm-3m,221,5,114.912892638938,5.05277583961008,5.05277678757618,-22.77113746,-4.554227492,Rb,Pb,F,0.0340889910000017,,,
mp-1179717,RbPbF3,Triclinic,P-1,2,20,451.655789666494,5.14222645536746,5.14222725789514,-91.42888138,-4.571444069,Rb,Pb,F,0.0158392365000015,,,
mp-1540546,RbPbF3,Trigonal,R3c,161,10,204.388997297409,5.68160806367527,5.30647015261771,-45.90513705,-4.590513705,Rb,Pb,F,0,,,
mp-674508,RbPbF3,Monoclinic,Cc,9,10,204.616610899234,5.67528789607085,5.3207812980854,-45.87404258,-4.587404258,Rb,Pb,F,0.00193866000000131,,,
mp-605350,RbPbF3,Triclinic,P-1,2,20,411.714598717343,5.64108330765656,5.64108261468664,-90.57302053,-4.5286510265,Rb,Pb,F,0.0554394515000016,,,
mp-1173075,RbPbF3,Orthorhombic,Ima2,46,10,245.473239676713,4.7306915275198,4.73069132744165,-44.65111378,-4.465111378,Rb,Pb,F,0.121696427000002,,,
mp-23517,RbPbI3,Orthorhombic,Pnma,62,20,886.200270363276,5.04705693877078,4.86651615529572,-57.23498792,-2.861749396,Rb,Pb,I,0,,,
mp-1385732,RbPdBr3,Orthorhombic,Amm2,38,5,148.246053607597,4.83445131655105,4.83445131655105,-15.57475774,-3.114951548,Rb,Pd,Br,0.00719688599999913,,,
mp-998173,RbPdCl3,Cubic,Pm-3m,221,5,125.490540284061,3.94651630128762,3.94652528787561,-17.08749143,-3.417498286,Rb,Pd,Cl,0.0433054945000002,,,
mp-9060,RbPdF3,Cubic,Pm-3m,221,5,82.0681661380443,5.03581327452374,5.03581315909134,-21.09111818,-4.218223636,Rb,Pd,F,0.0434700649999993,70.396074115686,70.396074115686,70.396074115686
mp-975255,RbPdO3,Cubic,Pm-3m,221,5,70.3585027704342,5.66157690748639,5.66157685765163,-22.80867004,-4.561734008,Rb,Pd,O,0.155602799,,,
mp-9138,RbPO3,Orthorhombic,Pnma,62,20,351.465234877425,3.10766040912851,2.92207958890401,-130.15102785,-6.5075513925,Rb,P,O,0.004965456249999,,,
mp-548658,RbPO3,Orthorhombic,Cmcm,63,10,197.618006568735,2.76349967945286,2.76349963801103,-64.63313587,-6.463313587,Rb,P,O,0.0493095812500002,,,
mp-1179733,RbPO3,Monoclinic,P2_1/c,14,60,1293.44674022142,2.53331172049646,2.53331177719885,-339.03818247,-5.6506363745,Rb,P,O,1.17624905325,,,
mp-616587,RbPO3,Monoclinic,P2_1/c,14,40,710.756417944141,3.07344279429205,2.92419836444439,-260.50090674,-6.5125226685,Rb,P,O,0,,,
mp-4135,RbPO3,Monoclinic,P2_1/c,14,20,330.326119554358,3.30653415202877,3.11253486118788,-130.21807875,-6.5109039375,Rb,P,O,0.00162713874999998,,,
mp-556953,RbPS3,Orthorhombic,Immm,71,10,282.468445775958,2.50004079017427,2.291127657268,-44.36174542,-4.436174542,Rb,P,S,0,,,
mp-571464,RbPSe3,Trigonal,P3_121,152,30,936.903319634434,3.75729861007681,3.58922460455061,-116.89323246,-3.896441082,Rb,P,Se,0,,,
mp-975236,RbPtO3,Cubic,Pm-3m,221,5,69.1770975102413,7.88657127816993,7.88657232403996,-24.28164014,-4.856328028,Rb,Pt,O,0.160222983999999,,,
mp-1186888,RbPuO3,Cubic,Pm-3m,221,5,78.5591521302025,7.97866349517614,7.7777176886087,-42.89331447,-8.578662894,Rb,Pu,O,0.0209192079999951,,,
mp-975216,RbReO3,Cubic,Pm-3m,221,5,63.2380201895597,8.39415123126924,8.39415343550011,-36.1207945,-7.2241589,Rb,Re,O,0.146620809235295,,,
mp-1186897,RbRhO3,Cubic,Pm-3m,221,5,66.0719495774182,5.94055590142584,5.94055448376022,-26.67520833,-5.335041666,Rb,Rh,O,0.115868383,,,
mp-975208,RbRuO3,Cubic,Pm-3m,221,5,62.9776208931611,6.1840410133116,6.18403862938359,-30.22446286,-6.044892572,Rb,Ru,O,0.199182717750006,,,
mp-975206,RbSbO3,Cubic,Pm-3m,221,5,68.4450321000895,6.19201614504755,6.19201627291937,-26.879681,-5.3759362,Rb,Sb,O,0.0966591215909078,,,
mp-1206561,RbScBr3,Hexagonal,P6_3/mmc,194,10,319.450470601691,3.84801317438756,3.66467620418387,-40.97787293,-4.097787293,Rb,Sc,Br,0.0134910913333313,,,
mp-1206320,RbScCl3,Hexagonal,P6_3/mmc,194,10,273.090770179764,2.87953300884302,2.73025114754497,-45.07631206,-4.507631206,Rb,Sc,Cl,0,,,
mp-998366,RbSeBr3,Tetragonal,P4mm,99,5,165.720969895569,4.04951724993406,3.98707748076233,-13.19419797,-2.638839594,Rb,Se,Br,0.0600954488906251,,,
mp-998299,RbSeBr3,Monoclinic,P2_1/m,11,10,354.432179290841,3.78684535704771,3.42087934269033,-26.49786322,-2.649786322,Rb,Se,Br,0.050724696890625,,,
mp-725554,RbSeO3,Triclinic,P-1,2,10,210.464884419131,3.35202399901641,3.44985680667474,-48.63377909,-4.863377909,Rb,Se,O,0.174372124499995,,,
mp-1206676,RbSmI3,Orthorhombic,Cmcm,63,10,429.655740524808,4.7656328954121,4.76563201974389,-33.39602453,-3.339602453,Rb,Sm,I,0.0561980559999995,,,
mp-975207,RbSmO3,Cubic,Pm-3m,221,5,95.8775290890886,4.91568948005408,4.91568827358989,-29.47194091,-5.894388182,Rb,Sm,O,0.271069491124999,,,
mp-998778,RbSnBr3,Orthorhombic,Pnma,62,20,701.026816832455,4.2058097434605,3.98040630180253,-63.66835223,-3.1834176115,Rb,Sn,Br,0,,,
mp-998157,RbSnBr3,Triclinic,P1,1,5,205.868064404073,3.58043077880455,3.64834329496544,-15.82118173,-3.164236346,Rb,Sn,Br,0.0111378265000002,,,
mp-998611,RbSnCl3,Trigonal,R3c,161,10,351.023523555361,2.93802810019155,2.9380279511144,-35.21312952,-3.521312952,Rb,Sn,Cl,0,,,
mp-998620,RbSnF3,Trigonal,R-3,148,10,206.856119396056,4.19313662896226,3.81950592924324,-46.40014475,-4.640014475,Rb,Sn,F,0.0128238206250018,,,
mp-998193,RbSnF3,Triclinic,P1,1,5,112.25028907002,3.86358012237964,3.8779234579729,-23.04523624,-4.609047248,Rb,Sn,F,0.0421968916250011,,,
mp-1198796,RbSnF3,Monoclinic,P2_1/c,14,80,1776.24390964655,3.90656245554561,3.90656244288788,-372.29935293,-4.653741911625,Rb,Sn,F,0,,,
mp-29405,RbSnI3,Orthorhombic,Pnma,62,20,862.578615210053,4.50386636900073,4.34890022942037,-56.74744434,-2.837372217,Rb,Sn,I,0,,,
mp-1186893,RbSnO3,Cubic,Pm-3m,221,5,74.1195447959333,5.64963129241853,5.64962934587407,-26.01381202,-5.202762404,Rb,Sn,O,0.18585081483333,,,
mp-3404,RbSO3,Trigonal,P321,150,30,572.751582723195,2.87947550587083,2.66833889009046,-169.64749809,-5.654916603,Rb,S,O,0.00697095322915953,,,
mp-1209111,RbSrCl3,Tetragonal,P4/mbm,127,10,341.926351203298,2.71422384851795,2.6301202671629,-39.06939599,-3.906939599,Rb,Sr,Cl,0.0094709552500003,,,
mp-1209047,RbSrCl3,Cubic,Pm-3m,221,5,184.832984422625,2.51054934748733,2.51054881805751,-19.37520963,-3.875041926,Rb,Sr,Cl,0.0410545752500005,,,
mp-998755,RbSrCl3,Trigonal,R-3,148,10,364.200712158119,2.54822307011248,2.47991692396293,-39.15537105,-3.915537105,Rb,Sr,Cl,0.000593840250000532,,,
mp-1209174,RbSrCl3,Monoclinic,P2_1/m,11,20,697.651520568306,2.66053933664966,2.66053945109024,-78.2815923,-3.914079615,Rb,Sr,Cl,0.00212109575000063,,,
mp-1205862,RbSrI3,Orthorhombic,Cmcm,63,10,462.731325293601,3.97469760125647,3.82860806461834,-30.90452788,-3.090452788,Rb,Sr,I,0,,,
mp-975200,RbSrO3,Cubic,Pm-3m,221,5,114.287126851107,3.21227727210792,3.21227638661559,-22.24923281,-4.449846562,Rb,Sr,O,0.457093103999999,,,
mp-755018,RbTaO3,Trigonal,R3m,160,5,68.4956466245509,7.62233158675153,7.67215873060907,-40.52564388,-8.105128776,Rb,Ta,O,0.0525669795000159,106.521374077884,106.102685284513,106.312029681198
mp-858693,RbTaO3,Triclinic,P-1,2,20,365.632604093056,5.71170650512783,5.71170641363261,-115.45818778,-5.772909389,Rb,Ta,O,2.38549151650002,,,
mp-780619,RbTaO3,Triclinic,P-1,2,20,351.316805912971,5.94445266533159,5.71170617532705,-163.15667545,-8.1578337725,Rb,Ta,O,0.000329468000014543,,,
mp-3033,RbTaO3,Monoclinic,C2/m,12,20,333.986473876849,6.25290629001697,6.0639768522423,-163.1639101,-8.158195505,Rb,Ta,O,0,73.3245790062405,64.1959512581825,68.7602651322115
mp-1076534,RbTaO3,Cubic,Pm-3m,221,5,67.4797887091799,7.73708010662842,7.73708243424776,-40.50743222,-8.101486444,Rb,Ta,O,0.0566622735000149,,,
mp-980058,RbTbO3,Cubic,Pm-3m,221,5,93.2702366440183,5.2055969501183,5.20559697003794,-29.73878771,-5.947757542,Rb,Tb,O,0.258242987875001,,,
mp-569807,RbTiBr3,Hexagonal,P6_3/mmc,194,10,315.618668452932,3.92536213467042,3.93560277579591,-41.21207669,-4.121207669,Rb,Ti,Br,0.0042974709166641,16.8558897186386,15.8032778576112,16.3295837881249
mp-28282,RbTiCl3,Hexagonal,P6_3/mmc,194,10,258.407513700243,3.08056769110451,2.98167276332954,-45.41970533,-4.541970533,Rb,Ti,Cl,0,18.045215466104,16.4336681226376,17.2394417943708
mp-27812,RbTiI3,Hexagonal,P6_3cm,185,30,1213.17884470659,4.22162225402427,4.22162192620861,-110.48861417,-3.68295380566667,Rb,Ti,I,0.067067689444444,,,
mp-998391,RbTlBr3,Monoclinic,Cm,8,5,198.670367662605,4.4262273540118,4.42622814736945,-13.57177563,-2.714355126,Rb,Tl,Br,0.02371399975,,,
mp-1114101,RbTlBr3,Cubic,Fm-3m,225,10,410.830269798029,4.28089301312734,4.28089303405057,-27.23413919,-2.723413919,Rb,Tl,Br,0.0253148957499998,,,
mp-998606,RbTlBr3,Trigonal,R3c,161,10,393.952416815276,4.46429659139334,4.46429678096518,-27.28133528,-2.728133528,Rb,Tl,Br,0.0265111777499998,,,
mp-1113994,RbTlCl3,Cubic,Fm-3m,225,10,357.304149731101,3.68270197884144,3.68270284692982,-30.41206423,-3.041206423,Rb,Tl,Cl,0.0306932017291621,,,
mp-998434,RbTlF3,Orthorhombic,Pbam,55,40,826.433514167455,5.57530000730476,5.57530036676852,-159.00955036,-3.975238759,Rb,Tl,F,0.0417545685,,,
mp-1410049,RbTlF3,Orthorhombic,Amm2,38,5,107.067738090559,5.37932207655019,5.37932207655019,-19.83624704,-3.967249408,Rb,Tl,F,0.0526172160000007,,,
mp-998607,RbTlF3,Monoclinic,Cm,8,5,107.065663380863,5.37942631661482,5.37942587464343,-19.83114671,-3.966229342,Rb,Tl,F,0.052865604,,,
mp-1113914,RbTlF3,Cubic,Fm-3m,225,10,211.584521848791,5.44417750565369,5.12898025864311,-40.19382486,-4.019382486,Rb,Tl,F,0,,,
mp-1114149,RbTlI3,Cubic,Fm-3m,225,10,497.852886623168,4.47320321102531,4.47320317620505,-23.82063924,-2.382063924,Rb,Tl,I,0.0912211315000002,,,
mp-975179,RbTlO3,Cubic,Pm-3m,221,5,89.0592710662166,6.29931005000417,6.29930918737916,-20.06681736,-4.013363472,Rb,Tl,O,0.322265231500007,,,
mp-1209127,RbTmBr3,Orthorhombic,Pnma,62,20,685.019068991748,4.79108190764405,4.79108231584969,-71.82802954,-3.591401477,Rb,Tm,Br,0.162204138388888,,,
mp-1209166,RbTmI3,Orthorhombic,Pnma,62,20,795.506418320451,5.3029564183113,5.30295647027592,-65.32750654,-3.266375327,Rb,Tm,I,0.055267574722222,,,
mp-1209132,RbTmI3,Orthorhombic,Pnma,62,20,850.394807923447,4.96067923690807,4.96067973366874,-63.2571511,-3.162857555,Rb,Tm,I,0.158676190722222,,,
mp-981550,RbTmO3,Cubic,Pm-3m,221,5,88.4569059288174,5.67674572358578,5.67674429489096,-29.94642933,-5.989285866,Rb,Tm,O,0.243250292249999,,,
mp-11775,RbUO3,Cubic,Pm-3m,221,5,81.0911791274491,7.6072615756211,7.43688169556386,-41.53050868,-8.306101736,Rb,U,O,0,,,
mp-568136,RbVBr3,Trigonal,P-3c1,165,30,929.589010809345,4.0312273822166,3.85704812442269,-126.54844013,-4.21828133766667,Rb,V,Br,1.86106666664188E-05,,,
mp-29314,RbVBr3,Hexagonal,P6_3cm,185,30,933.587939777993,4.0139600298108,3.86131875221422,-126.54886147,-4.21829538233333,Rb,V,Br,0,,,
mp-570099,RbVBr3,Hexagonal,P6_3/mmc,194,10,310.262282594133,4.0260395637416,3.881268067012,-42.18066957,-4.218066957,Rb,V,Br,0.000337826666666707,14.006311970921,13.791404415252,13.8988581930865
mp-23319,RbVCl3,Hexagonal,P6_3/mmc,194,10,263.032309058535,3.06522227421391,2.91894429207626,-46.19301696,-4.619301696,Rb,V,Cl,0,16.2912891443963,15.5700610098501,15.9306750771232
mp-556424,RbVF3,Cubic,Pm-3m,221,5,73.1213828735656,4.39209067479927,4.11119997093434,-27.85849154,-5.571698308,Rb,V,F,0,64.8041201650798,64.8041201650798,64.8041201650798
mp-672346,RbVI3,Hexagonal,P6_3cm,185,30,1198.38710812659,4.29929088701623,4.29929100550042,-113.8786613,-3.79595537666667,Rb,V,I,0.0222280823333323,,,
mp-19031,RbVO3,Orthorhombic,Pbcm,57,20,343.463419308715,3.56621218690895,3.30389733241364,-132.74917396,-6.637458698,Rb,V,O,0,,,
mp-1076638,RbVO3,Cubic,Pm-3m,221,5,60.0146848589424,5.10234884418313,5.10235036540968,-31.40368902,-6.280737804,Rb,V,O,0.357393585,,,
mp-975138,RbWO3,Cubic,Pm-3m,221,5,66.8387919242801,7.88313184450565,7.98524434365442,-32.3710672,-6.47421344,Rb,W,O,0.1532382055,,,
mp-571418,RbYbBr3,Orthorhombic,Pnma,62,20,683.409398943506,4.84227137017779,4.63547051155717,-69.72327464,-3.486163732,Rb,Yb,Br,0,,,
mp-6952,RbYbF3,Cubic,Pm-3m,221,5,82.755227072502,6.33077923418276,5.95054679182029,-26.34214825,-5.26842965,Rb,Yb,F,0,,,
mp-568796,RbYbI3,Orthorhombic,Pnma,62,20,834.748347847625,5.08633191855364,4.88170467677382,-60.40109286,-3.020054643,Rb,Yb,I,0.000823789500000949,,,
mp-980537,RbYbO3,Cubic,Pm-3m,221,5,93.696117791725,5.43208405153634,5.43209436159146,-23.37420463,-4.674840926,Rb,Yb,O,0.418669306,,,
mp-975173,RbYO3,Cubic,Pm-3m,221,5,93.7681732019676,3.93797950442919,3.93800267427111,-31.57059325,-6.31411865,Rb,Y,O,0.256370943874999,,,
mp-4975,RbZnF3,Hexagonal,P6_3/mmc,194,30,432.764861985154,4.78568788431754,4.48997161496941,-123.41474956,-4.11382498533333,Rb,Zn,F,0,,,
mp-975159,RbZnO3,Cubic,Pm-3m,221,5,72.203064265868,4.57376304216201,4.57376386325047,-19.4199062,-3.88398124,Rb,Zn,O,0.418686624,,,
mp-974581,ReBiO3,Cubic,Pm-3m,221,5,65.1316775177274,11.2990641512996,11.2990662176158,-35.13930751,-7.027861502,Re,Bi,O,0.501623485250001,,,
mp-974724,ReClO3,Monoclinic,P2_1/c,14,20,382.57011136113,4.68178733708083,4.09006771045498,-142.93600361,-7.1468001805,Re,Cl,O,0,,,
mp-1245819,ReMoN3,Triclinic,P-1,2,20,345.805689423268,6.22652721017041,6.22652697651133,-187.25904105,-9.3629520525,Re,Mo,N,0.355935855900002,,,
mp-974511,ReSbO3,Cubic,Pm-3m,221,5,63.5486173562168,9.30144738848919,9.30144898763136,-34.8454206,-6.96908412,Re,Sb,O,0.603808143666666,,,
mp-1247323,ReWN3,Triclinic,P-1,2,20,248.14004080444,11.0301185635708,11.0301194227193,-198.70733942,-9.935366971,Re,W,N,0.306757530166665,,,
mp-1246660,RhWN3,Triclinic,P-1,2,20,288.233848221905,7.576183379183,7.57618422246485,-175.832074,-8.7916037,Rh,W,N,0.380526966,,,
mp-974337,RuPbO3,Cubic,Pm-3m,221,5,64.0068642453909,9.24271593776542,9.24271585902522,-32.26682085,-6.45336417,Ru,Pb,O,0.175983216201388,,,
mp-28109,SbAsO3,Monoclinic,P2_1/c,14,20,328.766024141109,4.94333765503077,4.53699588154357,-120.20513985,-6.0102569925,Sb,As,O,0,,,
mp-1186920,SbAuO3,Cubic,Pm-3m,221,5,64.1151249610802,9.49792745446597,9.49792538014152,-24.67111665,-4.93422333,Sb,Au,O,0.376001137666663,,,
mp-1186948,SbPbO3,Cubic,Pm-3m,221,5,74.967601732332,8.34965776029694,8.34965536910802,-28.43961029,-5.687922058,Sb,Pb,O,0.170023494109374,,,
mp-1186927,SbPdO3,Cubic,Pm-3m,221,5,63.6844400611598,7.20120472132351,7.20120319941793,-26.64445253,-5.328890506,Sb,Pd,O,0.506670652750003,,,
mp-776150,ScAgO3,Orthorhombic,Cmmm,65,10,132.011680724646,5.05217860556601,5.05217863188876,-65.00190926,-6.500190926,Sc,Ag,O,0.0606846089166657,135.252232581762,128.2774474935,131.764840037631
mp-4471,ScAlO3,Orthorhombic,Pnma,62,20,191.070079357462,4.16931492296697,4.1693148519092,-164.83135738,-8.241567869,Sc,Al,O,0.0280202173750013,208.819689690813,203.390330190797,206.105009940805
mp-973156,ScAsO3,Cubic,Pm-3m,221,5,61.2565924517859,4.55076208048466,4.5507631504695,-32.53734312,-6.507468624,Sc,As,O,1.046996032625,,,
mp-754009,ScBiO3,Trigonal,R3c,161,10,141.536535366261,7.08472976865481,7.0851452710343,-73.84052235,-7.384052235,Sc,Bi,O,0.0214323768750004,,,
mp-555769,ScBiO3,Monoclinic,C2/c,15,20,282.200995491352,7.10662344557423,7.10662287539841,-147.42969529,-7.3714847645,Sc,Bi,O,0.0344824253749998,,,
mp-756205,ScBiO3,Orthorhombic,Pnma,62,20,268.226772875564,7.47686813446329,7.47687260462449,-147.4835296,-7.37417648,Sc,Bi,O,0.0321571613749994,,,
mp-555313,ScBiO3,Monoclinic,Cc,9,20,282.419021347168,7.10113717325695,7.10113828194407,-147.43315928,-7.371657964,Sc,Bi,O,0.0337337538750004,,,
mp-550008,ScBiO3,Cubic,Pm-3m,221,5,67.7074343450527,7.40500740547469,7.4050057433499,-35.24326895,-7.04865379,Sc,Bi,O,0.357016045875,,,
mp-1101383,ScBiO3,Trigonal,R-3,148,10,141.880242606161,7.06756689333479,7.06756665984499,-73.32552159,-7.332552159,Sc,Bi,O,0.0735853158750004,,,
mp-8697,ScBO3,Trigonal,R-3c,167,10,100.67384890531,3.42305423105833,3.34691130581356,-85.94870924,-8.594870924,Sc,B,O,0,166.717520170546,155.072315232813,160.894917701679
mp-1186980,ScCoO3,Cubic,Pm-3m,221,5,49.1030032627938,5.13644360293692,5.13644208991939,-34.62526919,-6.925053838,Sc,Co,O,0.556738233874993,,,
mp-1643785,ScCoO3,Monoclinic,P2_1/c,14,20,202.463570620597,4.98291729659951,4.98291729659951,-149.04594831,-7.4522974155,Sc,Co,O,0.0667059503749936,,,
mp-754124,ScCoO3,Orthorhombic,Pnma,62,20,207.543641217417,4.86094983232861,5.29757974388817,-157.57719119,-7.8788595595,Sc,Co,O,0.0669737393749941,,,
mp-18961,ScCrO3,Orthorhombic,Pnma,62,20,207.888872140946,4.63123374058739,4.61856930773587,-169.27939333,-8.4639696665,Sc,Cr,O,0.0368469178750033,,,
mp-973068,ScCuO3,Cubic,Pm-3m,221,5,51.8489259705177,5.01214914366876,5.01214970856626,-32.3709066,-6.47418132,Sc,Cu,O,0.5634292605,,,
mp-771123,ScFeO3,Hexagonal,P6_3cm,185,30,342.916047186745,4.3232751674085,4.32314242156776,-235.30904983,-7.84363499433333,Sc,Fe,O,0.058397885541666,171.24544687214,171.187502033749,171.216474452945
mp-769734,ScFeO3,Orthorhombic,Pnma,62,20,212.222875132666,4.65711791713176,4.6571186950126,-156.37418046,-7.818709023,Sc,Fe,O,0.0839461803749977,,,
mp-756419,ScFeO3,Monoclinic,P2_1/c,14,20,201.369838216004,4.90811813209773,4.90811819135358,-164.86056812,-8.243028406,Sc,Fe,O,0.138111688874998,,,
mp-754342,ScFeO3,Hexagonal,P6_3/mmc,194,10,117.433446505706,4.20811525001753,4.28901374071577,-82.43876006,-8.243876006,Sc,Fe,O,0.0729476268749973,175.298713414621,172.452093041163,173.875403227892
mp-754165,ScGaO3,Hexagonal,P6_3/mmc,194,10,110.734412723228,4.87891149778049,4.75428229270026,-75.29032159,-7.529032159,Sc,Ga,O,0.0176113473749995,179.215873832963,178.615587294027,178.915730563495
mp-769079,ScGaO3,Hexagonal,P6_3cm,185,30,328.435081939072,4.93488755445027,4.82445896818823,-226.26646028,-7.54221534266667,Sc,Ga,O,0.00453056070833302,,,
mp-754239,ScGaO3,Orthorhombic,Pnma,62,20,206.957044415152,5.22101966581595,5.22101885179706,-149.41072097,-7.4705360485,Sc,Ga,O,0.076462109875,,,
mp-768358,ScInO3,Hexagonal,P6_3/mmc,194,10,132.664381965635,5.20130126585692,5.20122950054126,-72.82200128,-7.282200128,Sc,In,O,0.0736459318750002,153.864099890591,150.981418136666,152.422759013629
mp-18954,ScMnO3,Hexagonal,P6_3cm,185,30,332.262424165138,4.43470016134328,4.26738799205127,-248.98682297,-8.29956076566667,Sc,Mn,O,0.00778543889584071,,,
mp-1105811,ScMnO3,Monoclinic,P2_1/c,14,20,218.735034343596,4.49092583781479,4.51587288776234,-165.13729365,-8.2568646825,Sc,Mn,O,0.0499739205625076,,,
mp-1246879,ScMoN3,Triclinic,P-1,2,20,311.773955083192,3.89691542709687,3.89691536467259,-183.17361936,-9.158680968,Sc,Mo,N,0.121703519233334,,,
mp-973123,ScPdO3,Cubic,Pm-3m,221,5,67.8551067576614,4.87905063692651,4.87905091763284,-31.98422406,-6.396844812,Sc,Pd,O,0.820065729875001,,,
mp-1188449,ScRhO3,Orthorhombic,Pnma,62,20,215.032201855713,6.04993176814232,6.04993063243506,-155.49163912,-7.774581956,Sc,Rh,O,0.0511400981249963,,,
mp-1196890,ScRhO3,Monoclinic,P2_1/c,14,40,432.851926102627,6.01097082271978,6.01097131653863,-312.03276362,-7.8008190905,Sc,Rh,O,0.0246142638749962,,,
mp-1186993,ScSiO3,Cubic,Pm-3m,221,5,45.978363101869,4.37142583538247,4.37142426448519,-38.35348635,-7.67069727,Sc,Si,O,0.707826589968748,,,