material_id,formula_pretty,crystal_system,space_group,number,nsites,volume,density,density,energy,energy_per_atom,A_site,B_site,X_site,energy_above_hull,k_voigt,k_reuss,k_vrh
mp-557257,KVF3,Cubic,Pm-3m,221,5,70.412270033406,3.46754020972295,3.23647766347633,-28.03190823,-5.606381646,K,V,F,0,67.8243592761181,67.8243592761181,67.8243592761181
mp-18815,KVO3,Orthorhombic,Pbcm,57,20,313.271956955433,2.92675404339418,2.70964038394854,-133.29404904,-6.664702452,K,V,O,0,,,
mp-1076633,KVO3,Cubic,Pm-3m,221,5,57.204585275291,4.00697759755177,4.00697753336442,-32.24200704,-6.448401408,K,V,O,0.216911290500001,,,
mp-1040472,KWO3,Cubic,Pm-3m,221,5,64.8266861017305,6.94005308418597,7.0364879497376,-33.00999587,-6.601999174,K,W,O,0.0676837248333335,,,
mp-1211270,KYbBr3,Orthorhombic,Pnma,62,20,652.661384610721,4.5984952877361,4.3706195613665,-70.00266629,-3.5001333145,K,Yb,Br,0,,,
mp-1206621,KYbI3,Orthorhombic,Cmcm,63,10,398.965426434461,4.93503125798963,4.71808437054614,-30.27529524,-3.027529524,K,Yb,I,0.0111272619999987,,,
mp-1184953,KYbO3,Cubic,Pm-3m,221,5,90.0801701866824,4.79535973348387,4.79535837298008,-23.5091253,-4.70182506,K,Yb,O,0.426377906000001,,,
mp-1184945,KYO3,Cubic,Pm-3m,221,5,90.975818732629,3.21248857179657,3.21248858462092,-31.73268105,-6.34653621,K,Y,O,0.271296047916667,,,
mp-5878,KZnF3,Cubic,Pm-3m,221,5,66.3030927533202,4.04477702936884,3.80259449077202,-20.80617398,-4.161234796,K,Zn,F,0,68.7884799404616,68.7884799404616,68.7884799404616
mp-1184946,KZnO3,Cubic,Pm-3m,221,5,68.3450371135669,3.70533620752247,3.70533674630674,-19.85856867,-3.971713734,K,Zn,O,0.366345996000001,,,
mp-1184950,KZrO3,Cubic,Pm-3m,221,5,76.1325666553378,3.88937572492684,3.8893766261841,-36.43093762,-7.286187524,K,Zr,O,0.0663136548333334,,,
mp-768308,LaAgO3,Trigonal,R3c,161,10,139.994864052904,6.99283090392176,6.99283101509173,-61.98447982,-6.198447982,La,Ag,O,0.0357766196666685,,,
mp-1076000,LaAgO3,Cubic,Pm-3m,221,5,69.3477085260396,7.05834722261861,7.05834463561814,-29.97690966,-5.995381932,La,Ag,O,0.238295728666667,,,
mp-771698,LaAlO3,Monoclinic,P2_1/c,14,40,569.581153201603,4.98843394170354,4.98843351308294,-318.31625256,-7.957906314,La,Al,O,0.0568456297500006,,,
mp-780421,LaAlO3,Triclinic,P-1,2,30,421.878649270127,5.05118823049204,5.05118799191683,-238.02938684,-7.93431289466667,La,Al,O,0.082367176,,,
mp-1080060,LaAlO3,Orthorhombic,Imma,74,10,108.784654005409,6.52968468568241,6.37108587835625,-80.14334763,-8.014334763,La,Al,O,0.000625742000000429,,,
mp-1080080,LaAlO3,Tetragonal,I4/mcm,140,10,108.667600271923,6.53671828142792,6.37155787153882,-80.14049706,-8.014049706,La,Al,O,0.000904127000000088,,,
mp-768417,LaAlO3,Triclinic,P-1,2,30,467.764471011982,4.5556868893417,4.55568678955816,-239.39684429,-7.97989480966667,La,Al,O,0.0308914143333325,,,
mp-2920,LaAlO3,Trigonal,R-3c,167,10,108.695363450958,6.53504866025744,6.37151136266489,-80.14937415,-8.014937415,La,Al,O,0,181.311848989707,180.85468563033,181.083267310019
mp-768518,LaAlO3,Orthorhombic,Cmcm,63,30,442.599776648795,4.81470750849495,4.69770295609759,-240.43885366,-8.01462845533333,La,Al,O,0.000160230666665484,,,
mp-696871,LaAlO3,Triclinic,P1,1,10,123.707008271127,5.74203110416799,5.74203150879784,-77.03344579,-7.703344579,La,Al,O,0.228061582,,,
mp-780422,LaAlO3,Monoclinic,P2_1/c,14,60,942.809074714024,4.52050902996563,4.52050865051945,-478.75666933,-7.97927782216667,La,Al,O,0.0355370593333326,,,
mp-771703,LaAlO3,Triclinic,P-1,2,30,426.785828191837,4.99310972184221,4.99310935138637,-239.16627786,-7.972209262,La,Al,O,0.0424869606666665,,,
mp-780411,LaAlO3,Monoclinic,P2_1/c,14,60,830.98632044709,5.12881720301393,5.12881669673384,-475.30424951,-7.92173749183333,La,Al,O,0.0928953656666671,,,
mp-1182592,LaAlO3,Hexagonal,P6/mmm,191,5,125.07172857583,2.83968846271167,2.83968899970383,-25.37207494,-5.074414988,La,Al,O,2.904972766,,,
mp-5304,LaAlO3,Cubic,Pm-3m,221,5,54.1366515334802,6.56052294679775,6.41537443442882,-40.04120612,-8.008241224,La,Al,O,0.00678850399999931,,,
mp-1079050,LaAsO3,Monoclinic,P2_1/m,11,10,141.513704112392,6.14457931385629,5.99924291635965,-73.39221542,-7.339221542,La,As,O,0,,,
mp-28853,LaAuO3,Orthorhombic,Pbcm,57,20,302.058415516361,8.4411689344911,8.21266324891404,-130.17157489,-6.5085787445,La,Au,O,0,,,
mp-981934,LaBeO3,Cubic,Pm-3m,221,5,50.9656498583963,6.3832390426908,6.38323909538819,-36.05442567,-7.210885134,La,Be,O,0.258440084749999,,,
mp-768310,LaBiO3,Trigonal,R3c,161,10,174.440048343407,7.53704175529087,7.53704263606126,-70.54842858,-7.054842858,La,Bi,O,0.0351944605999988,64.2297036816807,57.3289029540284,60.7793033178546
mp-755003,LaBiO3,Trigonal,R-3,148,10,176.750223538887,7.43853049707717,7.43853041691538,-70.49228094,-7.049228094,La,Bi,O,0.0406504895999982,,,
mp-8216,LaBO3,Orthorhombic,Pnma,62,20,247.048425148268,5.31576646769373,5.20116755377542,-167.99583438,-8.399791719,La,B,O,0,,,
mp-7492,LaBO3,Monoclinic,P2_1/m,11,10,127.94431487087,5.13212226594487,5.00776473037582,-83.92618755,-8.392618755,La,B,O,0.00717165300000211,,,
mp-973869,LaCdO3,Cubic,Pm-3m,221,5,73.0498864671244,6.80389425334931,6.80389380255982,-28.98093091,-5.796186182,La,Cd,O,0.410356087749999,,,
mp-989643,LaCoN3,Monoclinic,C2/m,12,10,156.91990402396,5.07640955080006,4.95948004933964,-79.73559622,-7.973559622,La,Co,N,0,,,
mp-1273989,LaCoO3,Monoclinic,P2_1/c,14,20,243.196875834301,6.71425925094707,6.71425979122989,-144.4963502,-7.22481751,La,Co,O,0.0179204554999997,,,
mp-1185232,LaCoO3,Orthorhombic,Pnma,62,20,236.986989797283,6.89019627097942,6.89037290987983,-144.04301494,-7.202150747,La,Co,O,0.0474867225000004,,,
mp-1277476,LaCoO3,Triclinic,P-1,2,20,239.43160537909,6.81984682342393,6.8198466964867,-144.30809151,-7.2154045755,La,Co,O,0.0348765289999999,,,
mp-1272753,LaCoO3,Triclinic,P1,1,20,237.877427298271,6.86440446206958,6.86440446206958,-144.24715373,-7.2123576865,La,Co,O,0.0304298195000001,,,
mp-1288145,LaCoO3,Trigonal,R-3,148,10,118.072976978365,6.91473576409904,6.91473576409904,-72.42787506,-7.242787506,La,Co,O,0,,,
mp-1180725,LaCoO3,Monoclinic,C2/c,15,10,113.599935291835,7.18700617732327,6.83764788429338,-71.91119335,-7.191119335,La,Co,O,0.0387641499999996,,,
mp-561922,LaCoO3,Triclinic,P-1,2,10,113.206366559324,7.2119922359499,6.79235736014513,-71.93535471,-7.193535471,La,Co,O,0.0114115004999995,,,
mp-510611,LaCoO3,Cubic,Pm-3m,221,5,87.8796168478899,4.64523780354616,4.44831744964569,-30.25731232,-6.051462464,La,Co,O,1.430275218,,,
mp-1181307,LaCoO3,Monoclinic,C2/c,15,10,680.599494991048,1.19959453789586,1.19959462975711,-46.70783219,-4.670783219,La,Co,O,2.915006911,,,
mp-19051,LaCoO3,Trigonal,R-3c,167,20,222.253599566858,7.34695355465177,6.94836996662463,-72.12064104,-7.212064104,La,Co,O,0.00331638500000064,,,
mp-573180,LaCoO3,Cubic,Pm-3m,221,5,55.6037412470154,7.34162322872262,7.22857686431643,-37.83948306,-7.567896612,La,Co,O,0.0765487460000003,,,
mp-1504268,LaCoO3,Orthorhombic,Imma,74,10,119.411392530082,6.83723235603558,6.83723235603558,-71.8764226,-7.18764226,La,Co,O,0.0551452460000004,,,
mp-989612,LaCrN3,Monoclinic,C2/c,15,20,297.160150448653,5.20629070767072,5.14590854977942,-175.0618104,-8.75309052,La,Cr,N,0,,,
mp-18841,LaCrO3,Cubic,Pm-3m,221,5,60.566545113659,6.54986016359863,6.56010808804853,-40.79248853,-8.158497706,La,Cr,O,0.0914568244999998,,,
mp-19281,LaCrO3,Orthorhombic,Pnma,62,20,236.617663145238,6.70621788438939,6.44374787674793,-164.87344734,-8.243672367,La,Cr,O,0,166.136289103308,164.112732241699,165.124510672504
mp-19357,LaCrO3,Trigonal,R-3c,167,10,117.860842067102,6.73170824387796,6.48349885114446,-82.34620233,-8.234620233,La,Cr,O,0.00742642449999842,,,
mp-10328,LaCrS3,Orthorhombic,Pnma,62,20,397.493378891681,4.79741395140848,4.80750849091287,-136.95310446,-6.847655223,La,Cr,S,0,,,
mp-1105933,LaCrSe3,Orthorhombic,Pnma,62,20,455.701294024344,6.23520730154903,6.21150390752623,-125.8930481,-6.294652405,La,Cr,Se,0,,,
mp-3474,LaCuO3,Trigonal,R-3c,167,10,114.501288105387,7.26422327876873,7.05008487920266,-67.85120378,-6.785120378,La,Cu,O,0,,,
mp-1076070,LaCuO3,Cubic,Pm-3m,221,5,58.0356246833123,7.16596854985971,7.16596688033555,-33.79071829,-6.758143658,La,Cu,O,0.0242210939999996,,,
mp-756272,LaDyO3,Orthorhombic,Pna2_1,33,20,312.283933264801,7.43167844701681,7.4316781803046,-167.33211846,-8.366605923,La,Dy,O,0.0398782336250001,,,
mp-7538,LaErO3,Orthorhombic,Pnma,62,20,304.079662733353,7.73614314327978,7.73614213710905,-167.90787631,-8.3953938155,La,Er,O,0.0270023546249991,,,
mp-558977,LaErS3,Orthorhombic,Pnma,62,60,1405.40977170161,5.70481548261209,5.63836993570464,-391.77466663,-6.52957777716667,La,Er,S,0,,,
mp-1200571,LaErS3,Monoclinic,P2_1/m,11,40,939.226631160958,5.6909256751002,5.66256844888438,-260.9991916,-6.52497979,La,Er,S,0.00327483308333321,,,
mp-1078634,LaFeO3,Trigonal,R-3c,167,10,115.450617267604,6.98296222991788,6.42645195969981,-75.98444267,-7.598444267,La,Fe,O,0,,,
mp-22590,LaFeO3,Orthorhombic,Pnma,62,20,251.936101688565,6.39993470087875,6.75288109724551,-160.9402649,-8.047013245,La,Fe,O,0.0277720220000006,158.821075486626,156.956269071117,157.888672278871
mp-552676,LaFeO3,Cubic,Pm-3m,221,5,61.9664231827311,6.50503335833213,6.93575194915422,-40.08724411,-8.017448822,La,Fe,O,0.130008494,,,
mp-1181002,LaFeO3,Orthorhombic,Pnma,62,20,302.648988687231,5.32754002117963,5.32754058793394,-150.61375604,-7.530687802,La,Fe,O,0.1067476205,,,
mp-605340,LaFeO3,Orthorhombic,Pmn2_1,31,20,333.391071484759,4.8362860841475,4.83628629517096,-146.88006335,-7.3440031675,La,Fe,O,0.291892885499999,,,
mp-556983,LaGaO3,Orthorhombic,Imma,74,10,121.684172493878,7.00401050248184,7.00401068831386,-144.83629962,-7.241814981,La,Ga,O,0.0375847591428569,,,
mp-3336,LaGaO3,Trigonal,R-3c,167,10,121.629702795951,7.00714712394499,7.00714815036505,-72.41180039,-7.241180039,La,Ga,O,0.0380710381428555,,,
mp-5837,LaGaO3,Orthorhombic,Pnma,62,20,244.776697806021,6.96371206713753,6.96371254118881,-144.93586914,-7.246793457,La,Ga,O,0.0325494031428564,,,
mp-1180739,LaGaO3,Orthorhombic,Pnma,62,20,243.580101270394,6.99792156820589,6.99792116066827,-144.83498931,-7.2417494655,La,Ga,O,0.0375457616428561,,,
mp-1078871,LaGaO3,Trigonal,R3c,161,10,121.691086311069,7.00361257318655,6.98933377633195,-72.40256908,-7.240256908,La,Ga,O,0.0385953581428566,,,
mp-9831,LaGaO3,Cubic,Pm-3m,221,5,97.3300964793554,4.3782820163633,4.37828280286587,-29.16279492,-5.832558984,La,Ga,O,1.44381518114286,,,
mp-1097026,LaGaO3,Cubic,Pm-3m,221,5,59.9351181644475,7.10999868052724,7.11010276925119,-35.91614683,-7.183229366,La,Ga,O,0.0963240671428567,,,
mp-4816,LaGaS3,Monoclinic,P2_1/c,14,60,1399.39197510397,4.34049606706342,4.28735313380823,-331.28569961,-5.52142832683333,La,Ga,S,0,,,
mp-1201646,LaGaS3,Orthorhombic,Pna2_1,33,60,1399.94961364727,4.33876712776414,4.28041984126405,-330.99323265,-5.5165538775,La,Ga,S,0.00473578650000039,,,
mp-770413,LaHoO3,Monoclinic,P2_1/c,14,20,312.482570740639,7.47861340193169,7.47861370237991,-166.66982452,-8.333491226,La,Ho,O,0.0803072915000005,,,
mp-756166,LaHoO3,Orthorhombic,Pnma,62,20,306.551964474399,7.62329592445387,7.62329584911566,-167.6115484,-8.38057742,La,Ho,O,0.0336375484999998,,,
mp-1200097,LaHoS3,Monoclinic,P2_1/m,11,40,946.328952161186,5.61552515641278,5.58757862067253,-261.1678795,-6.5291969875,La,Ho,S,0.000401868166664876,,,
mp-11623,LaInO3,Orthorhombic,Pnma,62,20,281.894025353081,7.10934713351585,6.91939191371571,-140.46837804,-7.023418902,La,In,O,0.00581354062500061,,,
mp-1080184,LaIO3,Monoclinic,C2/m,12,10,196.107278131491,5.31434305602558,5.31434374363939,-60.72449915,-6.072449915,La,I,O,0.0978370763888892,,,
mp-22220,LaLuO3,Orthorhombic,Pnma,62,20,287.524178026956,8.35965015137447,8.17371005856724,-168.72725431,-8.4363627155,La,Lu,O,0.0104821322500008,146.763012291542,144.95097152174,145.856991906641
mp-1106374,LaLuS3,Orthorhombic,Pnma,62,20,484.782075677732,5.61846724984516,5.61188288246056,-130.27708022,-6.513854011,La,Lu,S,0,,,
mp-1184964,LaMgO3,Cubic,Pm-3m,221,5,61.4329786732022,5.70898978552404,5.70898817487348,-34.06407755,-6.81281551,La,Mg,O,0.20892100375,,,
mp-1232358,LaMgS3,Trigonal,R-3,148,30,746.936123110716,3.4601586697733,3.46015865345446,-153.91749237,-5.130583079,La,Mg,S,0.347488924333335,,,
mp-1238931,LaMgS3,Monoclinic,C2/m,12,10,234.041912186351,3.68098955439875,3.6809894521517,-103.87410778,-5.193705389,La,Mg,S,0.282010419000001,,,
mp-1232327,LaMgS3,Monoclinic,C2/m,12,20,570.685800674745,3.01919491611978,3.01919533009623,-101.32920752,-5.066460376,La,Mg,S,0.403210427000002,,,
mp-1232143,LaMgSe3,Monoclinic,C2/m,12,10,306.939394163101,4.32897091897122,4.25490650288138,-91.27550994,-4.563775497,La,Mg,Se,0.402552690000002,,,
mp-989589,LaMnN3,Monoclinic,C2/m,12,10,139.641321227835,5.6095250840255,5.71781181530904,-85.08726152,-8.508726152,La,Mn,N,0,,,
mp-989554,LaMnN3,Orthorhombic,Cmcm,63,10,131.379203907071,5.96229441874282,5.96229417915553,-84.96923679,-8.496923679,La,Mn,N,0.0135716420000005,,,
mp-1272996,LaMnO3,Orthorhombic,Pbam,55,20,250.018108548083,6.424936465973,6.41441350766615,-159.83095705,-7.9915478525,La,Mn,O,0.170103010504564,,,
mp-557795,LaMnO3,Monoclinic,P2_1/c,14,20,297.141030041042,5.40602037538302,5.40602017675259,-161.30109115,-8.0650545575,La,Mn,O,0.465186926004565,,,
mp-19157,LaMnO3,Monoclinic,C2/c,15,10,118.730205264436,6.7647085220922,6.43948975769275,-80.36109391,-8.036109391,La,Mn,O,0.132793909004564,,,
mp-1180932,LaMnO3,Orthorhombic,Pnma,62,20,310.048572854398,5.1809638985777,5.1809641634585,-150.94645403,-7.5473227015,La,Mn,O,0.625177778504563,,,
mp-1281528,LaMnO3,Orthorhombic,Pmc2_1,26,20,250.304899807819,6.41757498154256,6.4249833498742,-159.90663457,-7.9953317285,La,Mn,O,0.171560545004564,,,
mp-1278230,LaMnO3,Triclinic,P-1,2,20,250.155877321562,6.42139804974198,6.42139914473955,-160.33046033,-8.0165230165,La,Mn,O,0.141251262504564,,,
mp-566602,LaMnO3,Monoclinic,P2_1/c,14,20,332.1145956801,4.8367355233958,4.84158589878213,-155.03051897,-7.7515259485,La,Mn,O,0.414727581504563,,,
mp-1273769,LaMnO3,Monoclinic,C2/m,12,20,248.535975368653,6.46325128738998,6.46325171981123,-159.66309851,-7.9831549255,La,Mn,O,0.170526122504564,,,
mp-17554,LaMnO3,Orthorhombic,Pnma,62,20,255.081757248191,6.29739452986917,6.52695916563544,-168.75094202,-8.437547101,La,Mn,O,0.120195148004564,136.721142666182,111.818049480258,124.26959607322
mp-1278019,LaMnO3,Tetragonal,I4/mmm,139,20,245.457158434438,6.5443211068266,6.5443211068266,-158.4672518,-7.92336259,La,Mn,O,0.212289520004564,,,
mp-1279320,LaMnO3,Tetragonal,P4/m,83,20,248.181765607663,6.47247576320159,6.47247576320159,-159.90920375,-7.9954601875,La,Mn,O,0.165878993504563,,,
mp-645158,LaMnO3,Monoclinic,P2_1/c,14,20,333.301140880423,4.81951684449972,4.83986088360696,-154.94587247,-7.7472936235,La,Mn,O,0.416012735004564,,,
mp-1273223,LaMnO3,Orthorhombic,Cmmm,65,20,245.628777902617,6.53974862587572,6.53974764809338,-158.83322848,-7.941661424,La,Mn,O,0.230449101504565,,,
mp-1283081,LaMnO3,Cubic,Fm-3m,225,10,123.011736134221,6.52925693614897,6.52925693614897,-79.11373087,-7.911373087,La,Mn,O,0.219411621004564,,,
mp-1272373,LaMnO3,Orthorhombic,Pnnm,58,20,248.714641646778,6.45860835585825,6.45860835585825,-159.56916618,-7.978458309,La,Mn,O,0.167524415004564,,,
mp-19025,LaMnO3,Cubic,Pm-3m,221,5,61.3667242048115,6.54406147459891,6.54216106864158,-39.84329059,-7.968658118,La,Mn,O,0.201064254004564,166.261005168949,166.261005168949,166.261005168949
mp-1180700,LaMnO3,Orthorhombic,Pnma,62,20,248.678238825818,6.45955380072204,6.45955393093063,-160.12030026,-8.006015013,La,Mn,O,0.162906044504565,,,
mp-19168,LaMnO3,Trigonal,R-3c,167,10,124.661105347159,6.44286948319112,6.45082048364167,-80.34638165,-8.034638165,La,Mn,O,0.135337310004564,,,
mp-1278738,LaMnO3,Tetragonal,P4/mmm,123,10,122.398766506096,6.56195527380648,6.56195527380648,-79.32656125,-7.932656125,La,Mn,O,0.210257448004564,,,
mp-1205375,LaMnO3,Tetragonal,P4/mbm,127,10,123.724343343594,6.49165079140159,6.47384745253813,-80.05964034,-8.005964034,La,Mn,O,0.161877726004564,,,
mp-989603,LaMoN3,Orthorhombic,Ama2,40,10,162.759048967539,5.6494074903715,5.56850606726181,-90.38279941,-9.038279941,La,Mo,N,0.0174398450000002,,,
mp-989631,LaMoN3,Monoclinic,C2/c,15,20,326.461481614741,5.63308226021011,5.49868775503623,-181.11918507,-9.0559592535,La,Mo,N,0,,,
mp-989534,LaMoN3,Monoclinic,P2_1/m,11,10,171.561919741866,5.35953544788046,5.35953498254872,-90.32997354,-9.032997354,La,Mo,N,0.0228025659999993,,,
mp-989552,LaMoN3,Trigonal,R3c,161,10,133.324420331177,6.89665245180845,6.89665310635189,-90.26749939,-9.026749939,La,Mo,N,0.0293490240000001,,,
mp-989515,LaMoN3,Tetragonal,P4mm,99,5,70.81360396618,6.49234143486113,6.49234120981593,-45.06649577,-9.013299154,La,Mo,N,0.0416448979999995,,,
mp-1075921,LaNiO3,Cubic,Pm-3m,221,5,57.3784191636646,7.10761180460951,7.10760920299713,-32.96122436,-6.592244872,La,Ni,O,0.0351780560000012,,,
mp-1278441,LaNiO3,Orthorhombic,Cmmm,65,20,230.370326041441,7.08118161545046,7.08118161545046,-131.85572483,-6.5927862415,La,Ni,O,0.0435702440000005,,,
mp-19339,LaNiO3,Trigonal,R-3c,167,10,112.439591222389,7.25409128481942,6.98006242939873,-66.25503377,-6.625503377,La,Ni,O,0,,,
mp-1284950,LaNiO3,Triclinic,P-1,2,20,232.951690963961,7.00271421409149,7.00271331525563,-132.86075135,-6.6430375675,La,Ni,O,0.0198885735000003,,,
mp-989641,LaOsN3,Monoclinic,P2_1/m,11,10,134.45715278467,9.16750520157467,9.16750551972819,-86.09250371,-8.609250371,La,Os,N,0.0248985270000013,,,
mp-989632,LaOsN3,Monoclinic,P2_1/c,14,20,339.368417495597,7.26429793696624,7.26429897099672,-172.18970412,-8.609485206,La,Os,N,0.0204669200000005,,,
mp-989621,LaOsN3,Orthorhombic,Pmma,51,10,140.013765123299,8.80368188411258,8.74380344164897,-86.29986266,-8.629986266,La,Os,N,0,,,
mp-989564,LaOsN3,Cubic,Pm-3m,221,5,61.6558568127672,9.99610346252732,9.99610383376455,-42.93239555,-8.58647911,La,Os,N,0.0531897560000019,,,
mp-989607,LaOsN3,Orthorhombic,Pnma,62,20,246.282484603964,10.0099416288132,10.0099421926481,-171.9874277,-8.599371385,La,Os,N,0.0373399615000007,,,
mp-989588,LaOsN3,Trigonal,R-3c,167,10,123.041246394929,10.018076731651,10.0180772853639,-85.97310398,-8.597310398,La,Os,N,0.0368045840000022,,,
mp-16415,LaPdO3,Orthorhombic,Pnma,62,20,259.897023245289,7.49643696740287,7.27530658220982,-138.7592736,-6.93796368,La,Pd,O,0,,,
mp-1185084,LaPtO3,Cubic,Pm-3m,221,5,68.3813511656936,9.27600052033974,9.27599921487728,-33.86745119,-6.773490238,La,Pt,O,0.425002589656252,,,
mp-989581,LaReN3,Trigonal,R-3c,167,10,123.46020168977,9.87586229023263,9.77460302689538,-92.18088383,-9.218088383,La,Re,N,0,,,
mp-989614,LaReN3,Monoclinic,P2_1/c,14,20,367.729510332624,6.6313739634855,6.63137312223226,-183.54476039,-9.1772380195,La,Re,N,0.042172034,,,
mp-989602,LaReN3,Cubic,Pm-3m,221,5,61.8591780668742,9.85525501886232,9.7439873889927,-46.05570063,-9.211140126,La,Re,N,0.00764234499999894,,,
mp-5163,LaRhO3,Orthorhombic,Pnma,62,20,250.620518807492,7.68076693694139,7.46420303025866,-151.16652629,-7.5583263145,La,Rh,O,0,173.455792712619,172.94462217934,173.200207445979
mp-20472,LaRuO3,Orthorhombic,Pnma,62,20,256.623913249704,7.45357707521014,7.45357735980214,-159.05208243,-7.9526041215,La,Ru,O,0.0444983945000068,,,
mp-1222966,LaSbSe3,Orthorhombic,Pnma,62,20,564.447817268796,5.85488093012798,5.85488153891767,-100.4188762,-5.02094381,La,Sb,Se,0.0333306476333348,,,
mp-31116,LaScO3,Orthorhombic,Pnma,62,20,267.321259339815,5.76103666169138,5.67043575420104,-175.21292454,-8.760646227,La,Sc,O,0,154.496608232987,153.663453052342,154.080030642665
mp-1096800,LaScO3,Cubic,Pm-3m,221,5,67.8627929880572,5.67338709363616,5.67338858839053,-42.78186088,-8.556372176,La,Sc,O,0.204081822999999,,,
mp-1190131,LaScS3,Orthorhombic,Pnma,62,20,458.303199776713,4.05883758514646,4.04384085174254,-136.24940349,-6.8124701745,La,Sc,S,0,,,
mp-778450,LaSmO3,Orthorhombic,Pna2_1,33,20,327.224446878351,6.84593715564401,6.8459368381207,-165.76927142,-8.288463571,La,Sm,O,0.0667675652500002,,,
mp-1185122,LaSnO3,Cubic,Pm-3m,221,5,74.8025351410069,6.78430800995403,6.78430756314508,-33.9304543,-6.78609086,La,Sn,O,0.525741509156244,,,