material_id,formula_pretty,crystal_system,space_group,number,nsites,volume,density,density,energy,energy_per_atom,A_site,B_site,X_site,energy_above_hull,k_voigt,k_reuss,k_vrh
mp-559946,KCoF3,Cubic,Pm-3m,221,5,69.1863494599244,3.72079032011467,3.72079023332128,-24.71065633,-4.942131266,K,Co,F,0.159078601999985,,,
mp-1184947,KCoO3,Cubic,Pm-3m,221,5,58.1391609256198,4.17082065806573,4.17081907321013,-24.50197999,-4.900395998,K,Co,O,0.289261468,,,
mp-998420,KCrCl3,Tetragonal,P4mm,99,5,123.170311293724,2.66199769318682,2.66203813741514,-23.11618908,-4.623237816,K,Cr,Cl,0.0226921620000002,,,
mp-1180767,KCrF3,Tetragonal,I4/mcm,140,10,144.816530795254,3.39613966372411,3.17577407156091,-55.41980147,-5.541980147,K,Cr,F,0.00274023699999937,,,
mp-1180782,KCrF3,Orthorhombic,Ibam,72,10,144.409263926157,3.40571754765105,3.18360036038581,-55.42007212,-5.542007212,K,Cr,F,0.00252087899999953,,,
mp-556365,KCrF3,Monoclinic,C2/m,12,10,143.852184258082,3.41890647495714,3.29102920437317,-57.78782989,-5.778782989,K,Cr,F,0,,,
mp-560547,KCrF3,Tetragonal,I4/m,87,10,143.937372009583,3.41688303273968,3.1839999243707,-55.40662013,-5.540662013,K,Cr,F,0.00490523499999895,,,
mp-555036,KCrF3,Cubic,Pm-3m,221,5,75.1320029045511,3.27302045189383,3.26545023291687,-54.65287876,-5.465287876,K,Cr,F,0.0865177679999993,,,
mp-566131,KCrF3,Tetragonal,P4/mmm,123,5,77.0958316461441,3.18964821894676,3.18964794593096,-27.59166438,-5.518332876,K,Cr,F,0.0268132479999998,,,
mp-1076732,KCrO3,Cubic,Pm-3m,221,5,57.7242749333519,4.00124031772841,4.00124053316972,-29.87909783,-5.975819566,K,Cr,O,0.390394811666664,,,
mp-1023129,KCuCl3,Cubic,Pm-3m,221,5,110.457410027363,3.14200871279115,3.02621449046731,-16.13636834,-3.227273668,K,Cu,Cl,0.0139235660000003,,,
mp-27450,KCuCl3,Monoclinic,P2_1/c,14,20,483.289141317188,2.87246797022937,2.64985250002685,-64.72999443,-3.2364997215,K,Cu,Cl,0,,,
mp-636978,KCuCl3,Monoclinic,P2_1/c,14,20,672.184818811826,2.0652542871277,2.06525428526531,-64.3211114,-3.21605557,K,Cu,Cl,0.0219443690000003,,,
mp-556045,KCuF3,Tetragonal,I4/mcm,140,10,194.379792220748,2.7275226425041,2.78311449750159,-41.28804081,-4.128804081,K,Cu,F,0.133714853,,,
mp-3682,KCuF3,Tetragonal,I4/mcm,140,10,135.103562277527,3.92421395550073,3.92421274361835,-42.69080437,-4.269080437,K,Cu,F,0.00238764000000025,,,
mp-5566,KCuF3,Cubic,Pm-3m,221,10,127.649484463066,4.1533680042455,3.93490288154484,-42.68484017,-4.268484017,K,Cu,F,0.00219854800000085,66.6040384788476,66.6040384788476,66.6040384788476
mp-669347,KCuF3,Tetragonal,I4/mcm,140,10,132.251134112526,4.0088524615315,3.8557251338679,-170.97334556,-4.274333639,K,Cu,F,0,75.1403812769424,75.0516066722328,75.0959939745876
mp-1080828,KCuF3,Tetragonal,P4/mbm,127,10,131.742774853541,4.02432152440033,3.88767981528802,-42.68158387,-4.268158387,K,Cu,F,0.00376409899999963,,,
mp-1147650,KCuH3,Tetragonal,I4/mcm,140,10,116.903221890382,3.0019025740575,2.96405370931015,-123.54193037,-3.08854825925,K,Cu,H,0,,,
mp-1223513,KCuS3,Orthorhombic,Pmm2,25,5,109.315640695463,3.02043169234339,3.02043130015085,-18.36584881,-3.673169762,K,Cu,S,0.343337802722218,,,
mp-1211599,KDyBr3,Orthorhombic,Pnma,62,20,682.280243482244,4.29625802970821,4.29625748483304,-73.47733841,-3.6738669205,K,Dy,Br,0.144508827833332,,,
mp-1206220,KDyI3,Orthorhombic,Cmcm,63,10,399.108633799329,4.84555462601108,4.84555473978333,-32.78480993,-3.278480993,K,Dy,I,0.0986387683333327,,,
mp-1184954,KDyO3,Cubic,Pm-3m,221,5,89.2331257286205,4.64474079275351,4.64474103017235,-29.99820547,-5.999641094,K,Dy,O,0.264965222666667,,,
mp-973830,KErO3,Cubic,Pm-3m,221,5,86.7329373460614,4.86974449936298,4.86974326621658,-30.10233565,-6.02046713,K,Er,O,0.255832052666667,,,
mp-23348,KFeBr3,Orthorhombic,Pnma,62,20,584.014684721504,3.80612483920497,3.80612515081835,-76.77044813,-3.8385224065,K,Fe,Br,0.0516097273333322,,,
mp-23538,KFeCl3,Orthorhombic,Pnma,62,20,492.96940999499,2.71230081679778,2.71230093905189,-84.42095561,-4.2210477805,K,Fe,Cl,0.0313170278333326,,,
mp-556891,KFeF3,Cubic,Pm-3m,221,5,72.2673262450493,3.49120195835477,3.49120217902284,-24.19622437,-4.839244874,K,Fe,F,0.220190678999999,,,
mp-1247740,KFeI3,Orthorhombic,Pnma,62,20,648.150042492112,4.87446731444156,4.87446722670483,-65.78975633,-3.2894878165,K,Fe,I,0.146414656500001,,,
mp-1097023,KFeO3,Orthorhombic,Pnma,62,20,380.689591936088,2.4939998362577,2.49399961373622,-105.78112401,-5.2890562005,K,Fe,O,0.162004669333335,,,
mp-1184987,KGdO3,Cubic,Pm-3m,221,5,88.7738361398927,4.57056861210309,4.57056933805281,-39.5278269,-7.90556538,K,Gd,O,0.183613950333333,,,
mp-998412,KGeBr3,Monoclinic,Cm,8,5,175.640516654873,3.32267841289169,3.32268372693081,-15.86212001,-3.172424002,K,Ge,Br,0.0252311679999999,,,
mp-998612,KGeBr3,Monoclinic,P2_1/m,11,10,342.764628688975,3.40523440443936,3.15127467854659,-31.99482413,-3.199482413,K,Ge,Br,0,,,
mp-998613,KGeCl3,Trigonal,R3c,161,10,313.530931978826,2.31019685798936,2.26575224838214,-35.46539947,-3.546539947,K,Ge,Cl,0,,,
mp-998231,KGeCl3,Monoclinic,Cm,8,5,153.000837955443,2.36703989213084,2.36704686774102,-17.58787417,-3.517574834,K,Ge,Cl,0.0282228929999997,,,
mp-998227,KHfO3,Cubic,Pm-3m,221,5,72.9274388941298,6.04733644152503,6.04735650855572,-38.58431018,-7.716862036,K,Hf,O,0.0409062717499982,,,
mp-1184944,KHoO3,Cubic,Pm-3m,221,5,88.0233764199091,4.75442317100563,4.75442203672821,-30.05946552,-6.011893104,K,Ho,O,0.260054366583334,,,
mp-28529,KInBr3,Trigonal,P-3,147,20,697.280889752497,3.74962331235755,3.5589654057183,-59.16403614,-2.958201807,K,In,Br,0,,,
mp-1110931,KInBr3,Cubic,Fm-3m,225,10,387.265268852216,3.37564570046057,3.37564594893589,-28.91094183,-2.891094183,K,In,Br,0.0678324935000001,,,
mp-1112170,KInCl3,Cubic,Fm-3m,225,10,336.826508166963,2.56629032004095,2.56629046895553,-32.42634087,-3.242634087,K,In,Cl,0.0538268714666663,,,
mp-1112296,KInF3,Cubic,Fm-3m,225,10,203.339281313933,3.44475301597698,3.44475235145825,-43.4774294,-4.34774294,K,In,F,0.0742879767333369,,,
mp-1112169,KInI3,Cubic,Fm-3m,225,10,468.891611153289,3.78668971038512,3.78668955831604,-25.14718169,-2.514718169,K,In,I,0.0766823450000005,,,
mp-974734,KInO3,Cubic,Pm-3m,221,5,79.975696499525,4.19236005484487,4.19235876666452,-23.04526361,-4.609052722,K,In,O,0.291637047333333,,,
mp-1223446,KIO3,Trigonal,R3,146,5,92.3823940071027,3.84658759706934,3.84658733601159,-22.22023982,-4.444047964,K,I,O,0.00520394625000176,,,
mp-558843,KIO3,Cubic,Pm-3m,221,5,74.1019188315476,4.79551645326636,4.79551776706463,-84.87699425,-4.2438497125,K,I,O,0.197284066250002,,,
mp-1200675,KIO3,Trigonal,R3,146,40,704.085663573355,4.03765609055918,3.79695702728565,-177.9243908,-4.44810977,K,I,O,0,,,
mp-552729,KIO3,Trigonal,R3m,160,5,87.3626903291311,4.06760562931978,3.81997203642597,-22.22437731,-4.444875462,K,I,O,0.00440887425000192,,,
mp-1080058,KIO3,Trigonal,R3c,161,10,175.498772384806,4.0496804182325,3.80508406594297,-44.47039168,-4.447039168,K,I,O,0.000281918250001567,,,
mp-1180816,KIO3,Monoclinic,C2,5,20,373.603769659772,3.8046401009166,3.80464925326299,-88.81546823,-4.4407734115,K,I,O,0.00944628825000216,,,
mp-639811,KIrO3,Cubic,Pn-3,201,60,853.928961781822,6.5177924535219,6.32568842376586,-363.39121065,-6.0565201775,K,Ir,O,0,,,
mp-1184939,KLiO3,Cubic,Pm-3m,221,5,66.3689788479249,2.35280013623835,2.35279981961312,-19.55396443,-3.910792886,K,Li,O,0.498409370999998,,,
mp-1184941,KLuO3,Cubic,Pm-3m,221,5,83.7767025582092,5.19436390299045,5.19436250208965,-30.34766289,-6.069532578,K,Lu,O,0.235662399083333,,,
mp-27865,KMgCl3,Orthorhombic,Pnma,62,20,482.715058676498,2.33592821370662,2.25987157965913,-70.86843134,-3.543421567,K,Mg,Cl,0.00280860349999834,31.260926458486,31.2451980742621,31.253062266374
mp-3448,KMgF3,Cubic,Pm-3m,221,5,62.9720284629348,3.17484498484738,3.00190601128817,-24.79780034,-4.959560068,K,Mg,F,0,64.075877831704,64.075877831704,64.075877831704
mp-23737,KMgH3,Cubic,Pm-3m,221,5,63.4304022052392,1.73898988508408,1.69340564161986,-14.1386524,-2.82773048,K,Mg,H,0,34.7601046372115,34.7601046372115,34.7601046372115
mp-1017580,KMgH3,Cubic,Pm-3m,221,5,87.2844776851722,1.26373933564209,1.26373934958528,-8.89563024,-1.779126048,K,Mg,H,1.048648856,,,
mp-1184960,KMgO3,Cubic,Pm-3m,221,5,70.3274721484263,2.63035961874793,2.63036039865935,-22.73614435,-4.54722887,K,Mg,O,0.36418468,,,
mp-29636,KMnBr3,Orthorhombic,Pnma,62,20,576.445750206612,3.84565010731335,3.69973400323403,-84.55592985,-4.2277964925,K,Mn,Br,0.00132206300000171,,,
mp-23049,KMnCl3,Orthorhombic,Pnma,62,20,494.0085992614,2.69440086374857,2.62503419381534,-92.01025604,-4.600512802,K,Mn,Cl,0.0128935420000005,,,
mp-567530,KMnCl3,Orthorhombic,Pnma,62,20,488.391654678082,2.72538890417055,2.61477147187965,-92.26855752,-4.613427876,K,Mn,Cl,0,,,
mp-1180807,KMnF3,Orthorhombic,Pnma,62,20,307.633939033781,3.26093795099886,3.26093806670331,-112.19920214,-5.609960107,K,Mn,F,0.000830872499999025,,,
mp-558046,KMnF3,Orthorhombic,Pnma,62,20,290.87827856163,3.44877999062407,3.25709403317406,-112.23187729,-5.6115938645,K,Mn,F,0,57.6610343544875,57.4413153769076,57.5511748656975
mp-555123,KMnF3,Cubic,Pm-3m,221,5,73.1751476981214,3.42730837711817,3.2433562385626,-28.04680173,-5.609360346,K,Mn,F,0.00224352649999915,,,
mp-555359,KMnF3,Tetragonal,I4/mcm,140,10,145.31715903321,3.45167492085798,3.25956352516517,-56.11401175,-5.611401175,K,Mn,F,0.000179502499999096,59.5982049821915,58.6576552075966,59.1279300948941
mp-560382,KMnF3,Tetragonal,P4/mbm,127,20,292.387358551599,3.43098002519656,3.26096782326505,-115.25389556,-5.762694778,K,Mn,F,0.00134673499999938,,,
mp-1205353,KMnF3,Orthorhombic,Imma,74,10,145.377354858144,3.45024569950871,3.26195312524367,-56.10836142,-5.610836142,K,Mn,F,0.000273249499998407,,,
mp-1180746,KMnF3,Tetragonal,I4/mcm,140,10,146.038551017863,3.43462455570317,3.21772704510751,-56.09177626,-5.609177626,K,Mn,F,0.00174121549999828,,,
mp-644332,KMnF3,Monoclinic,P2_1/m,11,20,310.384329960601,3.2320419878731,3.23204205722369,-112.20229151,-5.6101145755,K,Mn,F,0.00166127599999832,,,
mp-1184948,KMnO3,Cubic,Pm-3m,221,5,61.9195042578554,3.80904068283677,3.80904171942171,-28.76792343,-5.753584686,K,Mn,O,0.279912627340909,,,
mp-1040469,KMoO3,Cubic,Pm-3m,221,5,64.2316389007802,4.73192439217115,4.80265914099562,-31.72255531,-6.344511062,K,Mo,O,0.106874973000001,,,
mp-973968,KNaO3,Cubic,Pm-3m,221,5,87.5149597247546,2.08881488845592,2.08881442438973,-17.73896262,-3.547792524,K,Na,O,0.610977824666669,,,
mp-7375,KNbO3,Trigonal,R3m,160,5,66.425586831147,4.49979937851835,4.36873530387121,-38.27625152,-7.655250304,K,Nb,O,0,102.861411792702,102.434311543786,102.647861668244
mp-4342,KNbO3,Tetragonal,P4mm,99,5,66.1919330077023,4.51568341878958,4.36539307943582,-38.26592512,-7.653185024,K,Nb,O,0.00213446599999934,128.74344267706,80.4875565999545,104.615499638507
mp-935811,KNbO3,Cubic,Pm-3m,221,5,65.411017908849,4.56959429613273,4.47469067615555,-38.21363899,-7.642727798,K,Nb,O,0.0129137520000011,170.627814373672,170.627814373672,170.627814373672
mp-5246,KNbO3,Orthorhombic,Amm2,38,5,66.3997057429457,4.50155329750489,4.36049991297267,-38.27582994,-7.655165988,K,Nb,O,0.000134570000000167,,,
mp-27366,KNiCl3,Hexagonal,P6_3cm,185,30,715.076080066199,2.84445436456792,2.77523617457716,-108.581549,-3.61938496666667,K,Ni,Cl,0,,,
mp-560976,KNiF3,Cubic,Pm-3m,221,5,64.388215759178,3.99187502493335,3.81474335205588,-21.65310039,-4.330620078,K,Ni,F,0,74.6759915796141,74.6759915796141,74.6759915796141
mp-1185015,KNpO3,Cubic,Pm-3m,221,5,78.700042912542,6.83830503366296,6.77947208438695,-42.3798821,-8.47597642,K,Np,O,0,,,
mp-1185009,KOsO3,Cubic,Pm-3m,221,5,60.7521747561399,7.5801646492812,7.58016614756574,-33.24950944,-6.649901888,K,Os,O,0.0386250924285658,,,
mp-1206970,KPaO3,Cubic,Pm-3m,221,5,82.6542619610523,6.3913370321952,6.25789055230607,-41.21621133,-8.243242266,K,Pa,O,0,,,
mp-1211504,KPbI3,Orthorhombic,Pnma,62,20,860.641682861651,4.83907512454537,4.72058180841266,-57.24928707,-2.8624643535,K,Pb,I,0.013806209999998,,,
mp-1184935,KPbO3,Cubic,Pm-3m,221,5,82.9265746193824,5.8930546408874,5.8930564113851,-23.61520645,-4.72304129,K,Pb,O,0.151146497,,,
mp-9061,KPdF3,Cubic,Pm-3m,221,5,80.0215363016087,4.20238862870112,4.20238733263112,-21.19876006,-4.239752012,K,Pd,F,0.0345552940000111,67.9143463195715,67.9143463195715,67.9143463195715
mp-972985,KPdO3,Cubic,Pm-3m,221,5,67.4229198677254,4.76606039774201,4.76605915091252,-23.22367604,-4.644735208,K,Pd,O,0.166205129333333,,,
mp-5039,KPO3,Monoclinic,P2_1/c,14,40,641.545960829136,2.44484784723836,2.30013733112848,-261.99070302,-6.5497675755,K,P,O,0,,,
mp-557880,KPO3,Monoclinic,P2_1/c,14,60,1005.75768490146,2.33925470038728,2.33925459607383,-392.73653529,-6.5456089215,K,P,O,0.00363071733333253,,,
mp-1196581,KPO3,Cubic,Pa-3,205,240,4158.23743013077,2.26319293343707,2.26319289718322,-1570.01348649,-6.541722860375,K,P,O,0.00989044462499855,,,
mp-1223439,KPO3,Monoclinic,C2/m,12,10,201.794081320203,1.9431717855351,1.943171550156,-63.02994973,-6.302994973,K,P,O,0.245941546,,,
mp-675976,KPO3,Triclinic,P-1,2,10,177.452276086047,2.20972406755299,2.20972431075133,-53.52225182,-5.352225182,K,P,O,1.49286222,,,
mp-557985,KPO3,Monoclinic,P2_1/c,14,40,641.982513350641,2.44318533389849,2.29477345800055,-261.95293052,-6.548823263,K,P,O,0.00104153599999979,,,
mp-13981,KPO3,Orthorhombic,Pnma,62,20,321.295661462842,2.44087058956284,2.28968237022562,-130.74349373,-6.5371746865,K,P,O,0.0125904084999986,,,
mp-8267,KPS3,Orthorhombic,Immm,71,10,264.318062163744,2.08909636881921,1.9531335806992,-44.442193,-4.4442193,K,P,S,0,,,
mp-569702,KPSe3,Trigonal,P3_1,144,120,3731.40401015426,3.27837493321461,3.27837496081251,-470.52999223,-3.92108326858333,K,P,Se,0,,,
mp-571452,KPSe3,Trigonal,P3_121,152,30,877.616110769835,3.48470738585679,3.30091492769912,-117.57404362,-3.91913478733333,K,P,Se,0.00196359783333389,,,
mp-974842,KPtO3,Cubic,Pm-3m,221,5,66.2536757394605,7.07238864641047,7.07238946030528,-24.67299359,-4.934598718,K,Pt,O,0.125462180166664,,,
mp-863708,KPuO3,Cubic,Pm-3m,221,5,76.6096388014749,7.17662531328815,7.00235239802148,-43.22384606,-8.644769212,K,Pu,O,1.73940000021133E-05,,,
mp-1184957,KRbO3,Cubic,Pm-3m,221,5,125.195176495611,2.28882429556323,2.28882394320531,-16.53690405,-3.30738081,K,Rb,O,0.766270069,,,
mp-973471,KReO3,Cubic,Pm-3m,221,5,61.1191247942066,7.42535401671084,7.42535632949059,-36.81404203,-7.362808406,K,Re,O,0.0372324480000019,,,
mp-975134,KRhO3,Cubic,Pm-3m,221,5,63.596546765562,4.96105150009468,4.9610511550153,-27.21361867,-5.442723734,K,Rh,O,0.0611240440000032,,,
mp-973958,KRuO3,Cubic,Pm-3m,221,5,61.1293194898789,5.11142323982721,5.11142276667252,-30.81142004,-6.162284008,K,Ru,O,0.104107755749996,,,
mp-14607,KSbO3,Cubic,Pn-3,201,60,884.654822425301,4.70440269499749,4.49174817510187,-338.27151335,-5.63785855583333,K,Sb,O,0.018391050666664,,,
mp-635067,KSbO3,Triclinic,P-1,2,10,161.361580557645,4.29859916300766,4.29859954740603,-49.79998215,-4.979998215,K,Sb,O,0.912558163999997,,,
mp-1180714,KSbO3,Triclinic,P-1,2,10,183.04675960487,3.78935282232788,3.78935296079474,-51.53844488,-5.153844488,K,Sb,O,0.815398153999997,,,
mp-16293,KSbO3,Cubic,Fd-3m,227,20,300.179611607449,4.62142482903707,4.62142423203423,-112.22871721,-5.6114358605,K,Sb,O,0.0447229699999978,112.495817116171,112.495817116171,112.495817116171
mp-695836,KSbO3,Triclinic,P-1,2,10,179.557350571773,3.86299281493033,4.40560639702489,-51.18560885,-5.118560885,K,Sb,O,0.764605200999998,,,
mp-547792,KSbO3,Trigonal,R-3,148,10,153.646240104696,4.51445316627366,4.32659880569679,-56.56271802,-5.656271802,K,Sb,O,0,,,
mp-973960,KScO3,Cubic,Pm-3m,221,5,74.6534006531105,2.93728332596222,2.93728355096763,-31.92528157,-6.385056314,K,Sc,O,0.203321557250001,,,
mp-28695,KSiH3,Orthorhombic,Pnma,62,20,319.757399910416,1.45838683721683,1.40234775829773,-69.44480915,-3.4722404575,K,Si,H,0,,,
mp-1199261,KSiO3,Monoclinic,P2_1/c,14,40,671.446534065448,2.27883175878279,2.27883142183037,-253.12468531,-6.32811713275,K,Si,O,0.147789096374996,,,
mp-974061,KSiO3,Cubic,Pm-3m,221,5,49.9612278398503,3.82825280800173,3.82825268431237,-30.03625963,-6.007251926,K,Si,O,0.470013543124995,,,
mp-1198795,KSiO3,Orthorhombic,Cmce,64,40,670.22237393681,2.28299404146307,2.28299393475854,-253.04207101,-6.32605177525,K,Si,O,0.149986950124996,,,
mp-1097014,KSnBr3,Orthorhombic,Pnma,62,20,665.041723036307,3.97026511300864,3.71832335022011,-63.77631921,-3.1888159605,K,Sn,Br,0,,,
mp-28774,KSnF3,Triclinic,P-1,2,40,736.412957767716,3.87488694294374,3.54485501347453,-187.53392429,-4.68834810725,K,Sn,F,0,,,
mp-1097015,KSnI3,Orthorhombic,Pnma,62,20,836.206283820549,4.27758726510187,4.14599795797364,-56.78034197,-2.8390170985,K,Sn,I,0,,,
mp-1079672,KSnN3,Trigonal,P-3,147,10,311.945044494587,2.12744437311893,2.12730027797441,-41.22582494,-4.122582494,K,Sn,N,2.028254001,,,
mp-558546,KSO3,Trigonal,P321,150,30,531.65818069242,2.23307756566768,2.05066907931938,-170.52906353,-5.68430211766667,K,S,O,0.0108015984605236,,,
mp-541581,KSO3,Trigonal,P321,150,30,512.648739732601,2.31588193609371,2.16087856925599,-170.44913178,-5.681637726,K,S,O,0.0128701337938573,,,
mp-1205548,KSrI3,Orthorhombic,Cmcm,63,10,443.916620975697,3.79625424357685,3.70008698741903,-30.99353188,-3.099353188,K,Sr,I,0,,,
mp-1184959,KSrO3,Cubic,Pm-3m,221,5,113.853524821729,2.54821775859721,2.54821779664161,-22.24720557,-4.449441114,K,Sr,O,0.506905779000002,,,
mp-3614,KTaO3,Cubic,Pm-3m,221,5,63.7546200303669,6.98142604191777,6.79624981414127,-41.1398279,-8.22796558,K,Ta,O,0,,,
mp-981313,KTbO3,Cubic,Pm-3m,221,5,90.8121317514671,4.49861582679569,4.49861560460697,-29.88982965,-5.97796593,K,Tb,O,0.269213928375001,,,
mp-28408,KTcCl3,Monoclinic,Cc,9,20,549.343718187128,2.94366054850378,2.9436605422128,-90.90177577,-4.5450887885,K,Tc,Cl,0.0504849289999996,,,
mp-973267,KTcO3,Cubic,Pm-3m,221,5,58.1469029621785,5.28592158280293,5.04977731110496,-34.1983148,-6.83966296,K,Tc,O,0,,,
mp-567718,KTiBr3,Hexagonal,P6_3,173,30,921.941214748158,3.53033627400803,3.53033615983181,-123.88301487,-4.129433829,K,Ti,Br,0.0231000725833308,,,
mp-568270,KTiCl3,Hexagonal,P6_3,173,30,778.402010004038,2.47447371831504,2.47447354904189,-136.57484616,-4.552494872,K,Ti,Cl,0.011912575666666,,,
mp-640578,KTiI3,Hexagonal,P6_3,173,30,1192.12957434772,3.90862932326973,3.90862917155607,-110.6527595,-3.68842531666667,K,Ti,I,0.0508006934444443,,,
mp-760376,KTiO3,Tetragonal,P4mm,99,5,78.5958659862473,2.85144977414314,2.85144996053322,-35.10638731,-7.021277462,K,Ti,O,0.089320331125001,59.8207941192971,49.5202393210583,54.6705167201777
mp-1180658,KTiO3,Hexagonal,P6_3/mmc,194,20,281.091182485896,3.18917388063305,3.18910130956156,-140.26360852,-7.013180426,K,Ti,O,0.0992398706250004,,,
mp-1111155,KTlBr3,Cubic,Fm-3m,225,10,405.140615144015,3.96090552040002,3.96090472663895,-27.04084445,-2.704084445,K,Tl,Br,0.0763020367500018,,,
mp-1111296,KTlCl3,Cubic,Fm-3m,225,10,352.894375150102,3.29233914899148,3.29233955593678,-30.2437054,-3.02437054,K,Tl,Cl,0.058349006395833,,,
mp-1111295,KTlF3,Cubic,Fm-3m,225,10,220.047132263609,4.53496917515289,4.53496956774242,-40.29062053,-4.029062053,K,Tl,F,0.0542841867083332,,,
mp-1110822,KTlI3,Cubic,Fm-3m,225,10,493.944410324376,4.19682935009266,4.19683021121438,-23.61638757,-2.361638757,K,Tl,I,0.117895556,,,
mp-984454,KTlO3,Cubic,Pm-3m,221,5,85.8038753005679,5.64092930918647,5.64093746921761,-20.25833831,-4.051667662,K,Tl,O,0.333117669000003,,,
mp-1211295,KTmBr3,Orthorhombic,Pnma,62,20,663.892697270967,4.47962300996492,4.47962326845195,-72.06031111,-3.6030155555,K,Tm,Br,0.177813281888888,,,
mp-570303,KTmI3,Orthorhombic,Cmcm,63,10,386.922656380649,5.05339030599218,5.05338946332723,-32.06962944,-3.206962944,K,Tm,I,0.128138947222222,,,
mp-1184949,KTmO3,Cubic,Pm-3m,221,5,85.9074501087085,4.94891881514753,4.94891796197564,-30.16405522,-6.032811044,K,Tm,O,0.247455240833334,,,
mp-4126,KUO3,Cubic,Pm-3m,221,5,79.4439339794903,6.79577933525701,6.64350066301663,-41.83398539,-8.366797078,K,U,O,0,,,
mp-1205604,KVCl3,Hexagonal,P6_3/mmc,194,10,255.09335182458,2.5569296706535,2.47127439899005,-46.17533995,-4.617533995,K,V,Cl,0,,,