material_id,formula_pretty,crystal_system,space_group,number,nsites,volume,density,density,energy,energy_per_atom,A_site,B_site,X_site,energy_above_hull,k_voigt,k_reuss,k_vrh
mp-567620,TlCoCl3,Orthorhombic,Pbca,61,40,978.594949681173,5.01830181414436,4.87631915257011,-149.83601225,-3.74590030625,Tl,Co,Cl,0.00771441333333378,,,
mp-2353285,TlCoCl3,Monoclinic,C2/m,12,10,254.210470156366,4.82954617120691,4.82954617120691,-37.62308261,-3.762308261,Tl,Co,Cl,0.00427613233333357,,,
mp-998160,TlCoF3,Cubic,Pm-3m,221,5,74.1050415464518,7.17751569768881,7.17760133009064,-23.04415682,-4.608831364,Tl,Co,F,0.1964791135,,,
mp-755788,TlCoO3,Trigonal,R-3,148,10,116.902353409713,8.84413697374225,8.6040084883877,-56.46139706,-5.646139706,Tl,Co,O,0.0645916885000055,,,
mp-756464,TlCoO3,Orthorhombic,Pnma,62,20,232.616609430897,8.88930870962134,9.58397895616488,-111.81645255,-5.5908226275,Tl,Co,O,0.087782118000006,,,
mp-770614,TlCoO3,Triclinic,P-1,2,20,228.342888500761,9.05568316926045,9.05568370652543,-103.61929572,-5.180964786,Tl,Co,O,0.0990235645000066,,,
mp-1105306,TlCrO3,Orthorhombic,Pnma,62,20,233.873741834963,8.64450864526062,8.64450900710048,-124.68623169,-6.2343115845,Tl,Cr,O,0.0398642965000002,,,
mp-1105457,TlCuCl3,Monoclinic,P2_1/c,14,20,500.545279042985,4.96674622930907,4.64408021021002,-62.12527746,-3.106263873,Tl,Cu,Cl,0,,,
mp-998147,TlCuCl3,Cubic,Pm-3m,221,5,111.989686583966,5.54979983674929,5.39201525457814,-15.45644315,-3.09128863,Tl,Cu,Cl,0.0174086975000005,39.4147220710551,39.4147220710551,39.4147220710551
mp-554973,TlCuF3,Cubic,Pm-3m,221,5,68.2064608366609,7.91053860980629,7.46885515050619,-20.28106003,-4.056212006,Tl,Cu,F,0.000183976999999835,66.7789059549375,66.7789059549375,66.7789059549375
mp-1187483,TlCuO3,Cubic,Pm-3m,221,5,56.7513547167691,9.24400762909468,9.24400481093488,-22.51881587,-4.503763174,Tl,Cu,O,0.310128812125001,,,
mp-504821,TlFeBr3,Orthorhombic,Pnma,62,20,577.943392122984,5.74568658752701,5.74568687817314,-74.72476888,-3.736238444,Tl,Fe,Br,0.0530759978333331,,,
mp-568553,TlFeBr3,Hexagonal,P6_3cm,185,30,843.185198422868,5.90738832230816,5.90738790561162,-108.45508957,-3.61516965233333,Tl,Fe,Br,0.126277559333333,,,
mp-998159,TlFeF3,Cubic,Pm-3m,221,5,77.006251733016,6.8405099414664,6.88620096919547,-24.61856253,-4.923712506,Tl,Fe,F,0.2713424985,,,
mp-23415,TlFeI3,Orthorhombic,Pnma,62,20,635.307468348421,6.70106241083701,6.70106249381416,-64.68004382,-3.234002191,Tl,Fe,I,0.147246787999998,,,
mp-505819,TlFeO3,Orthorhombic,Pnma,62,20,237.571485400718,8.61756862357588,8.99360043671556,-120.49819472,-6.024909736,Tl,Fe,O,0.0472809700000001,,,
mp-1187481,TlGaO3,Cubic,Pm-3m,221,5,59.7248885068574,8.95551451245067,8.95551258195724,-24.44950903,-4.889901806,Tl,Ga,O,0.430104891,,,
mp-756909,TlGaO3,Orthorhombic,Pnma,62,20,231.734861902555,9.23239777366899,9.23239754095711,-105.03146879,-5.2515734395,Tl,Ga,O,0.0695921200000003,,,
mp-998746,TlGeBr3,Orthorhombic,Pnma,62,20,617.803105193275,5.55555092247608,5.32808696813568,-61.76773091,-3.0883865455,Tl,Ge,Br,0,,,
mp-998153,TlGeBr3,Monoclinic,Cm,8,5,171.587505873479,5.00070881252836,5.00079202114199,-15.28484534,-3.056969068,Tl,Ge,Br,0.0279997380000006,,,
mp-998744,TlGeCl3,Monoclinic,Cm,8,5,151.039288581083,4.21493832878589,4.21495936060824,-16.94667746,-3.389335492,Tl,Ge,Cl,0,,,
mp-998712,TlGeF3,Triclinic,P1,1,5,105.97098872632,5.23398706405152,5.23398715609044,-22.72592366,-4.545184732,Tl,Ge,F,0.0279878789999994,,,
mp-998711,TlGeF3,Monoclinic,P2_1/m,11,10,192.735097781404,5.75557633812374,5.22537503300813,-45.73646079,-4.573646079,Tl,Ge,F,0,,,
mp-29288,TlGeI3,Orthorhombic,Pnma,62,20,768.288708546055,5.68639101599647,5.68639047649285,-55.48200047,-2.7741000235,Tl,Ge,I,0.0165256419999986,,,
mp-1187533,TlGeO3,Cubic,Pm-3m,221,5,57.6347938594639,9.36432425785989,9.36432214419292,-26.6033223,-5.32066446,Tl,Ge,O,0.324786508166669,,,
mp-998732,TlInCl3,Monoclinic,Cm,8,5,158.854574053747,4.4484680882083,4.448469008598,-15.40331233,-3.080662466,Tl,In,Cl,0.0646634925000007,,,
mp-546200,TlIO3,Cubic,Pm-3m,221,5,76.7475819762978,8.20637151529783,8.20637259337213,-20.29206768,-4.058413536,Tl,I,O,0.243994853999999,,,
mp-22981,TlIO3,Trigonal,R3m,160,5,91.3199505189197,6.89684090956433,6.53371347905595,-21.50212627,-4.300425254,Tl,I,O,0,,,
mp-1205652,TlNiCl3,Hexagonal,P6_3/mmc,194,10,238.928454889952,5.1351138794186,4.92066761191782,-34.91820539,-3.491820539,Tl,Ni,Cl,0.00197569599999836,,,
mp-998761,TlNiF3,Cubic,Pm-3m,221,5,68.2854038162554,7.78338971886612,7.47372186242587,-20.60713068,-4.121426136,Tl,Ni,F,0.0108620420000003,,,
mp-1178989,TlNiO3,Monoclinic,P2_1/c,14,20,223.64114407224,9.23894440321467,9.23894453812616,-92.10771187,-4.6053855935,Tl,Ni,O,0.075392727375001,,,
mp-998781,TlNiO3,Monoclinic,Pm,6,5,57.6729815206356,8.9565687514155,8.95741383182954,-21.88060375,-4.37612075,Tl,Ni,O,0.304601781875,,,
mp-1403003,TlNiO3,Orthorhombic,Amm2,38,5,54.4341707892113,9.48948090141694,9.48948090141694,-21.75743579,-4.351487158,Tl,Ni,O,0.365870813875,,,
mp-998845,TlNiO3,Trigonal,R3c,161,10,109.31815844005,9.45043406255264,9.45043596768886,-44.19380238,-4.419380238,Tl,Ni,O,0.102345992875001,,,
mp-1097917,TlNiO3,Monoclinic,Cm,8,5,54.4341705046677,9.48948095102127,9.48946638527499,-21.08161264,-4.216322528,Tl,Ni,O,0.365938421875001,,,
mp-18001,TlNiO3,Orthorhombic,Pnma,62,20,225.191377568972,9.17534285131284,9.40356021497222,-105.22652163,-5.2613260815,Tl,Ni,O,0.0740594913750012,,,
mp-676598,TlPbCl3,Orthorhombic,Fmm2,42,40,1153.25999934016,5.96613720331403,5.96613673786369,-135.90684114,-3.3976710285,Tl,Pb,Cl,0.0347458792500004,,,
mp-27552,TlPbI3,Orthorhombic,Cmcm,63,10,435.62150325722,6.04028786208384,6.04028817158173,-27.91478939,-2.791478939,Tl,Pb,I,0.0108972694999987,,,
mp-998786,TlPdF3,Cubic,Pm-3m,221,5,77.9414513840787,7.83593047066113,7.41389950222953,-20.35849618,-4.071699236,Tl,Pd,F,0,,,
mp-27144,TlPO3,Tetragonal,P-42_1c,114,40,638.715832761726,5.89335611416675,5.44559611608706,-254.77357745,-6.36933943625,Tl,P,O,0,,,
mp-556932,TlPO3,Orthorhombic,Pbcn,60,120,2032.67407763897,5.55550921758248,5.55550940592687,-762.83964491,-6.35699704091667,Tl,P,O,0.0124475697499991,,,
mp-8249,TlPS3,Orthorhombic,Immm,71,10,255.244322218464,4.31394631447719,4.02379904422749,-43.60214525,-4.360214525,Tl,P,S,0,,,
mp-557787,TlSbO3,Trigonal,P-31c,163,20,362.406901724839,6.85722677166932,6.50826418517348,-111.34678701,-5.5673393505,Tl,Sb,O,0,,,
mp-1179620,TlSbO3,Triclinic,P-1,2,10,260.248845513508,4.77448094696025,4.77448017170934,-49.32828264,-4.932828264,Tl,Sb,O,0.758883665999997,,,
mp-561465,TlSbO3,Hexagonal,P6_322,182,20,410.671356402707,6.05132612732889,6.05132687809571,-108.66137644,-5.433068822,Tl,Sb,O,0.134767325499997,,,
mp-30058,TlSbO3,Trigonal,R-3,148,10,178.471896523075,6.96217823970954,6.33142946690279,-55.67541762,-5.567541762,Tl,Sb,O,0.0002216769999972,,,
mp-1187529,TlSiO3,Cubic,Pm-3m,221,5,50.8504742078947,9.15874271866272,9.15873945706996,-29.87476314,-5.974952628,Tl,Si,O,0.534037567625011,,,
mp-676130,TlSnF3,Monoclinic,Cc,9,40,793.48417092851,6.36334628546417,6.18378273424637,-179.62347719,-4.49058692975,Tl,Sn,F,0,,,
mp-1205533,TlSnI3,Orthorhombic,Cmcm,63,10,410.188833887386,5.69834398569258,5.55012984833852,-27.67077183,-2.767077183,Tl,Sn,I,0,,,
mp-1187623,TlTcO3,Cubic,Pm-3m,221,5,63.5568348457117,9.15436035127172,9.15436164978424,-33.01671823,-6.603343646,Tl,Tc,O,0.0359791222916668,,,
mp-1206817,TlVCl3,Hexagonal,P6_3/mmc,194,10,255.394646814267,4.70323154496746,4.47278933379616,-44.91305687,-4.491305687,Tl,V,Cl,0.000823192000001249,,,
mp-22330,TlVO3,Orthorhombic,Pbcm,57,20,331.928920402299,6.06972951543783,5.71085377417159,-143.98063762,-7.199031881,Tl,V,O,0.00631427064285628,,,
mp-1187621,TlWO3,Cubic,Pm-3m,221,5,67.777677921056,10.6873363717853,10.6873363578606,-31.8993084,-6.37986168,Tl,W,O,0.157751964000012,,,
mp-998745,TlZnF3,Cubic,Pm-3m,221,5,69.880573549884,7.76529725790471,7.32442195188865,-19.82335932,-3.964671864,Tl,Zn,F,0,,,
mp-1101265,TmAlO3,Hexagonal,P6_3/mmc,194,10,116.833220338949,6.93344991028955,6.93346123242664,-79.20609545,-7.920609545,Tm,Al,O,0.0763009676999857,,,
mp-756281,TmAlO3,Orthorhombic,Pnma,62,20,197.853921716167,8.1884379551496,7.90936519084772,-159.55632799,-7.9778163995,Tm,Al,O,0.019079384199987,,,
mp-972395,TmBeO3,Cubic,Pm-3m,221,5,44.2370537124403,8.48134743199426,8.48134693641567,-35.41909218,-7.083818436,Tm,Be,O,0.401290819374999,,,
mp-754323,TmBiO3,Trigonal,R3c,161,10,155.422468802458,9.10093457425762,9.10093328205474,-70.66108883,-7.066108883,Tm,Bi,O,0.0300203402500028,,,
mp-755216,TmBiO3,Trigonal,R-3,148,10,154.183266251643,9.17408065303389,9.17408181200498,-70.42522175,-7.042522175,Tm,Bi,O,0.0538467692500033,,,
mp-760484,TmBO3,Orthorhombic,Ama2,40,10,116.355612421308,6.50036249384126,6.50036702132245,-82.7648088,-8.27648088,Tm,B,O,0.0300250476000006,,,
mp-17620,TmBO3,Hexagonal,P6_3/mcm,193,30,324.087215853549,7.00138995244899,7.00139014783077,-239.65193956,-7.98839798533333,Tm,B,O,0.318168113600001,,,
mp-561954,TmCoO3,Orthorhombic,Pnma,62,20,215.826532451796,8.48988507631344,8.93235492451695,-152.15117983,-7.6075589915,Tm,Co,O,0.0201886942500105,,,
mp-777295,TmCrO3,Orthorhombic,Pnma,62,20,213.014606405251,8.38564649652158,8.20980216167568,-172.44707047,-8.6223535235,Tm,Cr,O,0,,,
mp-1187577,TmCrO3,Cubic,Pm-3m,221,5,56.3432377591164,7.92581886910243,7.92582023068726,-39.0535083,-7.81070166,Tm,Cr,O,0.398950168499999,,,
mp-558400,TmFeO3,Hexagonal,P6_3cm,185,30,363.35092316188,7.47967075766857,7.35368867836399,-240.09158348,-8.00305278266667,Tm,Fe,O,0.00974875658333296,164.476963815551,162.366881553788,163.421922684669
mp-20651,TmFeO3,Orthorhombic,Pnma,62,20,227.021955626904,7.98085884759748,8.26816241413642,-159.73583324,-7.986791662,Tm,Fe,O,0.0243056352500002,,,
mp-754578,TmGaO3,Orthorhombic,Pnma,62,20,221.876588815895,8.58139219640177,8.58139177993903,-144.33939052,-7.216969526,Tm,Ga,O,0.0508753261000017,,,
mp-1101269,TmGaO3,Hexagonal,P6_3/mmc,194,10,123.773036041189,7.69153803093006,7.69151597450084,-72.39074826,-7.239074826,Tm,Ga,O,0.0282885756000022,,,
mp-768469,TmGaO3,Hexagonal,P6_3cm,185,30,356.190891719466,8.01821469368966,7.77329406524092,-217.83004965,-7.261001655,Tm,Ga,O,0.0064111949333352,,,
mp-1187655,TmGeO3,Cubic,Pm-3m,221,5,58.7310033295805,8.1872651947754,8.18726822304727,-33.41668752,-6.683337504,Tm,Ge,O,0.751230910625006,,,
mp-1101263,TmInO3,Orthorhombic,Pnma,62,20,261.98237593932,8.41101641574794,8.41101632461879,-139.19712422,-6.959856211,Tm,In,O,0.0863472772499998,,,
mp-1232191,TmMgS3,Monoclinic,C2/m,12,20,508.528368080095,3.78045232544281,3.78045263357105,-98.86938187,-4.9434690935,Tm,Mg,S,0.326130793599997,,,
mp-1232251,TmMgS3,Trigonal,R-3,148,30,679.534760487239,4.24363998013197,4.24364014348254,-151.40750176,-5.04691672533333,Tm,Mg,S,0.236202536766664,,,
mp-1238772,TmMgS3,Monoclinic,C2/m,12,10,250.645869184262,3.83502680079825,3.83502697321502,-98.24489714,-4.912244857,Tm,Mg,S,0.361825811099997,,,
mp-1232151,TmMgSe3,Monoclinic,C2/m,12,10,284.984607584596,5.01240931960238,5.23923553452993,-89.35715233,-4.4678576165,Tm,Mg,Se,0.32732087375,,,
mp-1232198,TmMgSe3,Trigonal,R-3,148,30,781.94798583376,5.48038819286867,5.48038834868219,-136.34059422,-4.544686474,Tm,Mg,Se,0.208420617749999,,,
mp-554270,TmMnO3,Orthorhombic,Pnma,62,20,228.3572196462,7.90781237013242,8.05665936026093,-167.56211181,-8.3781055905,Tm,Mn,O,0.0410788485000015,,,
mp-554211,TmMnO3,Hexagonal,P6_3cm,185,30,360.189698908413,7.52022913953367,7.31308676088746,-252.36997614,-8.412332538,Tm,Mn,O,0,,,
mp-1106304,TmNiO3,Monoclinic,P2_1/c,14,20,211.52687155397,8.65492732731107,8.65492708558866,-131.86107023,-6.5930535115,Tm,Ni,O,0.00625879962499987,,,
mp-19002,TmNiO3,Orthorhombic,Pnma,62,20,203.775871813931,8.98413381710249,8.58450335754512,-131.90782673,-6.5953913365,Tm,Ni,O,0.00676577262500011,,,
mp-1207705,TmRhO3,Orthorhombic,Pnma,62,20,221.622205572873,9.58574242435393,9.26034582441789,-150.60610572,-7.530305286,Tm,Rh,O,0,,,
mp-1187557,TmScO3,Cubic,Pm-3m,221,5,64.0806258332252,6.78638487238121,6.78638695136211,-40.59869926,-8.119739852,Tm,Sc,O,0.628655032125,,,
mp-1207696,TmScO3,Orthorhombic,Pnma,62,20,245.334363930818,7.09033635239052,7.09033565373942,-173.9815548,-8.69907774,Tm,Sc,O,0.0493298766250003,,,
mp-768396,TmSeO3,Monoclinic,P2_1/c,14,40,616.797159580459,6.37280374831338,6.37280420604431,-267.60220546,-6.6900551365,Tm,Se,O,0.0217200936328101,,,
mp-755525,TmTiO3,Orthorhombic,Pnma,62,20,229.46195942722,7.66505727076033,7.6650577489251,-173.65134783,-8.6825673915,Tm,Ti,O,0.061155320249993,,,
mp-1101279,TmTlO3,Orthorhombic,Pnma,62,20,284.703423480985,9.82933309720517,9.82933298566858,-128.66176001,-6.4330880005,Tm,Tl,O,0.0884914422500014,,,
mp-755258,TmVO3,Orthorhombic,Pnma,62,20,218.703815552942,8.13547932583218,8.0263826786938,-172.91135936,-8.645567968,Tm,V,O,0,,,
mp-972367,UAlO3,Cubic,Pm-3m,221,5,53.4379198098777,9.72648432111865,9.72648517240666,-43.92428398,-8.784856796,U,Al,O,0.173777164850613,,,
mp-1187752,UBeO3,Cubic,Pm-3m,221,5,45.8703324711328,10.6806348276705,10.6806360887479,-43.0409591,-8.60819182,U,Be,O,0.439026145000016,,,
mp-1187784,UBO3,Cubic,Pm-3m,221,5,46.1836172093625,10.6728599424383,10.672856291006,-41.78133815,-8.35626763,U,B,O,0.973498744979183,,,
mp-1105902,UCoS3,Orthorhombic,Pnma,62,20,339.598987331449,7.68968997574392,7.68968963650554,-142.598138,-7.1299069,U,Co,S,0.0789393538229248,,,
mp-1188226,UCoSe3,Orthorhombic,Pnma,62,20,398.212087876139,8.90445767707793,8.90445738235015,-129.38135514,-6.469067757,U,Co,Se,0.0557209984166622,,,
mp-22063,UCrS3,Orthorhombic,Pnma,62,20,394.151361020795,6.50849879849895,6.70447484268764,-154.79690827,-7.7398454135,U,Cr,S,0.0169002337083413,,,
mp-1106185,UCrSe3,Orthorhombic,Pnma,62,20,454.952834579649,7.69263349508012,7.95060632159981,-142.00218095,-7.1001090475,U,Cr,Se,0.0180889327916649,,,
mp-22667,UFeS3,Orthorhombic,Cmcm,63,10,167.010266193284,7.75670476414255,7.7567050885976,-73.58555192,-7.358555192,U,Fe,S,0.109560473625002,,,
mp-1079562,UFeSe3,Orthorhombic,Cmcm,63,10,213.558013011753,8.2538471853753,8.25384851396662,-67.2858244,-6.72858244,U,Fe,Se,0.105444254499998,,,
mp-1187781,UIrO3,Cubic,Pm-3m,221,5,64.4487889506521,12.3220783657303,12.3220824095716,-40.5285146,-8.10570292,U,Ir,O,1.34720134000001,,,
mp-19912,UMnSe3,Orthorhombic,Cmcm,63,10,196.079410429011,8.97423718453183,8.9742367916708,-68.53985917,-6.853985917,U,Mn,Se,0.0593061915999984,,,
mp-1189264,UNiS3,Orthorhombic,Pnma,62,20,349.683873912946,7.46336439135666,7.46336470302647,-137.42086261,-6.8710431305,U,Ni,S,0.0214443085416551,,,
mp-1188256,UNiSe3,Orthorhombic,Pnma,62,20,408.489470718852,8.67652701278904,8.67652585730998,-125.63763958,-6.281881979,U,Ni,Se,0.034535965083327,,,
mp-1187714,UPdO3,Cubic,Pm-3m,221,5,74.631276257877,8.73191228135384,8.73191326142197,-41.48997221,-8.297994442,U,Pd,O,0.441087706000005,,,
mp-21103,UPdSe3,Orthorhombic,Pnma,62,20,453.333566959028,8.51751942459836,8.74506092051283,-124.01650876,-6.200825438,U,Pd,Se,0,,,
mp-1187779,UReO3,Cubic,Pm-3m,221,5,63.1048303239326,12.4263576054445,12.4263560954799,-45.68532078,-9.137064156,U,Re,O,1.06166620355556,,,
mp-21217,URhS3,Orthorhombic,Pnma,62,20,365.338150363558,7.94738202667831,7.94738110499603,-144.5358321,-7.226791605,U,Rh,S,0.0481831524545475,,,
mp-1105660,URuS3,Orthorhombic,Pnma,62,20,365.328437596662,7.91422149081196,8.09336488857339,-151.81617605,-7.5908088025,U,Ru,S,0,,,
mp-1187767,USiO3,Cubic,Pm-3m,221,5,54.6808778865594,9.53891525477681,9.53891419723566,-41.67297951,-8.334595902,U,Si,O,0.777176879000002,,,
mp-1187783,UTcO3,Cubic,Pm-3m,221,5,62.4374360456029,10.2132960476266,10.2132988188929,-44.44507068,-8.889014136,U,Tc,O,0.890373959916664,,,
mp-1187736,UTiO3,Cubic,Pm-3m,221,5,60.3563639163988,9.1861765319497,9.18617568224016,-47.4273929,-9.48547858,U,Ti,O,0.307579282000004,,,
mp-865322,UTlO3,Cubic,Pm-3m,221,5,80.9167764249513,10.0639901940188,9.84083630315719,-41.09389461,-8.218778922,U,Tl,O,0,,,
mp-1188711,UVS3,Orthorhombic,Pnma,62,20,381.160531331976,6.71194583734017,6.71194543213608,-155.25401066,-7.762700533,U,V,S,0.0338605118409099,,,
mp-1188372,UVSe3,Orthorhombic,Pnma,62,20,454.389767701035,7.68675010804508,8.18606863542827,-140.55670517,-7.0278352585,U,V,Se,0.00491690968751346,,,
mp-559736,VAgO3,Monoclinic,Cm,8,20,248.928085170805,5.51826198310841,5.22494132360751,-140.1490486,-7.00745243,V,Ag,O,0.00240270449999969,,,
mp-1100926,VAgO3,Triclinic,P-1,2,40,609.66223950044,4.50626691281258,4.50626689979349,-251.09054147,-6.27726353675,V,Ag,O,0.0663967909999998,,,
mp-624691,VAgO3,Monoclinic,C2/c,15,20,278.133786583235,4.93881166254839,4.67994520738164,-126.65029564,-6.332514782,V,Ag,O,0.0114442629999996,,,
mp-1178815,VAgO3,Monoclinic,C2/c,15,20,287.630654623917,4.7757440552437,4.3996660927911,-126.87500973,-6.3437504865,V,Ag,O,0,,,
mp-756282,VBiO3,Orthorhombic,Pnma,62,20,238.850163118419,8.56291406739171,8.39700782945138,-145.4697137,-7.273485685,V,Bi,O,0.0103641481250003,,,
mp-1187744,VBiO3,Cubic,Pm-3m,221,5,61.1514817335113,8.36142217566539,8.36142312410865,-33.11016228,-6.622032456,V,Bi,O,0.273710011125002,,,
mp-18946,VBO3,Trigonal,R-3c,167,10,89.6963593861957,4.06360584050068,3.87623603346461,-80.87310888,-8.087310888,V,B,O,0,187.956785518214,175.815673861923,181.886229690069
mp-22649,VCdO3,Orthorhombic,Pnma,62,20,218.643749445636,6.42060145772462,6.42060151743239,-135.26797799,-6.7633988995,V,Cd,O,0.0701796605,,,
mp-1016904,VCdO3,Cubic,Pm-3m,221,5,56.6285895403334,6.19750724770021,6.19750821358526,-30.211171,-6.0422342,V,Cd,O,0.285856829,,,
mp-556857,VCdO3,Orthorhombic,Pnma,62,20,269.954135206333,5.20023290378586,5.01553831845605,-136.56263393,-6.8281316965,V,Cd,O,0,,,
mp-1277045,VCoO3,Triclinic,P1,1,10,103.061900163105,5.08731372679635,5.08731416843528,-70.57515154,-7.057515154,V,Co,O,0.0784661517499874,,,
mp-1206118,VCoO3,Triclinic,P-1,2,10,104.844976035398,5.00079488055262,5.0160568987545,-70.98524207,-7.098524207,V,Co,O,0.00128410774998677,,,
mp-1187746,VCoO3,Cubic,Pm-3m,221,5,53.8445617886074,4.86872027548393,4.86872182206147,-32.81217136,-6.562434272,V,Co,O,0.520219408749986,,,
mp-770849,VCrO3,Triclinic,P1,1,20,198.976370914131,5.03848354047399,4.77531702751839,-159.55906209,-7.9779531045,V,Cr,O,0.0111288411250019,,,
mp-755281,VCrO3,Triclinic,P1,1,20,198.977233197713,5.03846170580696,4.92845458569385,-175.57479834,-8.778739917,V,Cr,O,0.0123088286250024,,,
mp-1373421,VCrO3,Triclinic,P1,1,20,210.11675665238,4.77134325584853,4.77134325584853,-128.99997442,-6.449998721,V,Cr,O,1.564736321125,,,
mp-1101715,VCrO3,Triclinic,P-1,2,20,198.97063809352,5.03862871125178,4.75238007969756,-159.57425698,-7.978712849,V,Cr,O,0.00970203762500255,,,
mp-1216392,VCrO3,Trigonal,R3c,161,10,99.6975000973038,5.02790525748203,4.76206429570877,-79.767455,-7.9767455,V,Cr,O,0.00751148012500202,,,
mp-1370790,VCrO3,Triclinic,P1,1,20,209.828635380125,4.77789491399923,4.77789491399923,-129.02512371,-6.4512561855,V,Cr,O,1.563478856625,,,
mp-1376270,VCrO3,Triclinic,P1,1,20,209.634919106107,4.78230999906395,4.78230999906395,-134.29441594,-6.714720797,V,Cr,O,1.300014245125,,,
mp-1375284,VCrO3,Triclinic,P1,1,20,209.941920754327,4.77531674565969,4.77531674565969,-127.33475888,-6.366737944,V,Cr,O,1.647997098125,,,
mp-803450,VCrO3,Triclinic,P1,1,20,210.11675665238,4.77134325584853,4.77134317941688,-105.91483691,-5.2957418455,V,Cr,O,2.718993196625,,,
mp-1374293,VCrO3,Triclinic,P-1,2,20,210.955168838854,4.75238021098182,4.75238021098182,-132.98459576,-6.649229788,V,Cr,O,1.365505254125,,,
mp-806072,VCrO3,Triclinic,P1,1,20,210.222885550634,4.76893449144777,4.76893441505471,-108.13874716,-5.406937358,V,Cr,O,2.607797684125,,,
mp-757023,VCrO3,Triclinic,P1,1,20,199.082413723954,5.03579975268035,4.93150270176052,-175.52746149,-8.7763730745,V,Cr,O,0.0132536116250019,,,
mp-770855,VCrO3,Monoclinic,C2,5,20,198.948866643488,5.03918010043569,4.7689346580719,-159.55421341,-7.9777106705,V,Cr,O,0.0115463321250004,,,
mp-770779,VCrO3,Triclinic,P1,1,20,199.004763101463,5.03776469552615,4.78230925834446,-159.5970597,-7.979852985,V,Cr,O,0.00938144362500282,,,