material_id,formula_pretty,crystal_system,space_group,number,nsites,volume,density,density,energy,energy_per_atom,A_site,B_site,X_site,energy_above_hull,k_voigt,k_reuss,k_vrh
mp-1185488,LuGaO3,Cubic,Pm-3m,221,5,55.1254212562824,8.8166254217503,8.81662604499697,-34.09478618,-6.818957236,Lu,Ga,O,0.467463501333346,,,
mp-755342,LuGaO3,Hexagonal,P6_3/mmc,194,10,121.210938884752,8.01941136509051,8.01962578000094,-72.64286057,-7.264286057,Lu,Ga,O,0.0212063693333464,,,
mp-755792,LuGaO3,Orthorhombic,Pnma,62,20,218.753612620789,8.88707957066481,8.88707857778602,-144.62714556,-7.231357278,Lu,Ga,O,0.0545423528333462,,,
mp-768505,LuGaO3,Hexagonal,P6_3cm,185,30,349.229641114052,8.35015359319014,8.01402658498431,-218.55883548,-7.285294516,Lu,Ga,O,0,,,
mp-1185514,LuGeO3,Cubic,Pm-3m,221,5,58.231101148815,8.42958441805278,8.42958271715775,-33.22219519,-6.644439038,Lu,Ge,O,0.811421797062504,,,
mp-1237926,LuMgSe3,Monoclinic,C2/m,12,10,282.058133544813,5.1354479721866,5.13544777899908,-88.41537378,-4.420768689,Lu,Mg,Se,0.328991307,,,
mp-1232147,LuMgSe3,Monoclinic,C2/m,12,20,538.48679148607,5.37987149491268,5.37987167853783,-89.33472233,-4.4667361165,Lu,Mg,Se,0.2955585025,,,
mp-21125,LuMnO3,Orthorhombic,Pnma,62,20,225.333719743404,8.19174681149193,8.36826254547266,-167.79053095,-8.3895265475,Lu,Mn,O,0.0503064981666679,,,
mp-18808,LuMnO3,Hexagonal,P6_3cm,185,30,353.342892195799,7.83605735816011,7.50039343150274,-241.93012661,-8.06433755366667,Lu,Mn,O,0,,,
mp-1105866,LuNiO3,Monoclinic,P2_1/c,14,20,209.479837169206,8.93078999991922,8.93078960965852,-132.15714937,-6.6078574685,Lu,Ni,O,0.0162529474999999,,,
mp-19327,LuNiO3,Orthorhombic,Pnma,62,20,200.822178483529,9.31580589904262,8.89583336425863,-132.19344296,-6.609672148,Lu,Ni,O,0.0148717805,,,
mp-1185498,LuNpO3,Cubic,Pm-3m,221,5,74.0052639369839,10.3207548118044,10.3207526553049,-45.55505308,-9.111010616,Lu,Np,O,0.5750024781875,,,
mp-1185490,LuPdO3,Cubic,Pm-3m,221,5,62.2757682491884,8.7828220821183,8.78282021311475,-31.25021413,-6.250042826,Lu,Pd,O,0.684225316625003,,,
mp-1185529,LuReO3,Cubic,Pm-3m,221,5,61.924152823457,10.9722360676252,10.9722348934475,-39.43578699,-7.887157398,Lu,Re,O,0.985763634800012,,,
mp-1205366,LuRhO3,Orthorhombic,Pnma,62,20,218.149311235967,9.92203046517936,9.52353514697977,-150.84646396,-7.542323198,Lu,Rh,O,0,,,
mp-973681,LuRhO3,Cubic,Pm-3m,221,5,60.4224436107605,8.95562965801538,8.95562908286114,-34.10229323,-6.820458646,Lu,Rh,O,0.723557388499999,,,
mp-772180,LuScO3,Hexagonal,P6_3cm,185,30,391.534271097917,6.81769397088081,6.81771784994086,-261.99885915,-8.733295305,Lu,Sc,O,0.0400438891666699,,,
mp-776593,LuScO3,Orthorhombic,Pnma,62,20,243.072881470614,7.32115356598017,7.32115423466293,-174.19390539,-8.7096952695,Lu,Sc,O,0.0634593465000037,,,
mp-768293,LuSeO3,Monoclinic,P2_1/c,14,40,606.401787175432,6.61420992344108,6.61421055028375,-267.96224086,-6.6990560215,Lu,Se,O,0.03757851950781,,,
mp-973655,LuSiO3,Cubic,Pm-3m,221,5,49.8535850108096,8.36207656795165,8.36207813802816,-36.31272523,-7.262545046,Lu,Si,O,0.878017376874994,,,
mp-754231,LuTiO3,Orthorhombic,Pnma,62,20,226.583366921612,7.93928441797427,7.93928540894655,-173.84895654,-8.692447827,Lu,Ti,O,0.0619414232500013,,,
mp-754597,LuTlO3,Orthorhombic,Pnma,62,20,278.684590267502,10.1854053519322,10.1854055898384,-129.25713629,-6.4628568145,Lu,Tl,O,0.0837613916249991,,,
mp-973536,LuUO3,Cubic,Pm-3m,221,5,73.6716668569659,10.3906801866411,10.3906782355855,-43.75561248,-8.751122496,Lu,U,O,0.704651925270158,,,
mp-973486,LuVO3,Cubic,Pm-3m,221,5,57.2273477937425,7.94782203768701,7.94783861357735,-38.49987837,-7.699975674,Lu,V,O,0.56393285775,,,
mp-755583,LuVO3,Orthorhombic,Pnma,62,20,225.240941573798,8.07726646453332,8.27351572880383,-173.16089161,-8.6580445805,Lu,V,O,0.0057737502499986,,,
mp-1210575,MgAgF3,Cubic,Pm-3m,221,5,85.1531632417355,3.6889003572968,3.68890110315293,-16.76589087,-3.353178174,Mg,Ag,F,1.19587259200001,,,
mp-998418,MgAgF3,Trigonal,R-3c,167,10,118.967938296885,5.28077629661023,4.96482078805379,-45.29235149,-4.529235149,Mg,Ag,F,0.0181428880000052,,,
mp-998358,MgAgF3,Cubic,Pm-3m,221,5,63.436080433127,4.95178031433595,4.97046776995336,-22.56916685,-4.51383337,Mg,Ag,F,0.033178936000005,,,
mp-1185841,MgAlO3,Cubic,Pm-3m,221,5,49.6049774703492,3.32358153495817,3.32358281140284,-30.83866075,-6.16773215,Mg,Al,O,0.445497235727273,,,
mp-1185692,MgBeO3,Cubic,Pm-3m,221,5,42.5278451974157,3.17503433102949,3.17503479864917,-27.18127541,-5.436255082,Mg,Be,O,0.649674217249999,,,
mp-1185847,MgBiO3,Cubic,Pm-3m,221,5,60.9577436296112,7.6623965846235,7.6623969291486,-26.51548895,-5.30309779,Mg,Bi,O,0.456517275666671,,,
mp-1376863,MgBiO3,Orthorhombic,Pnma,62,20,267.469130940876,6.98521590062872,6.98521590062872,-112.70675195,-5.6353375975,Mg,Bi,O,0.124047268166671,,,
mp-1185693,MgBO3,Cubic,Pm-3m,221,5,37.8395872500612,3.6473541631716,3.64735462622432,-29.58104323,-5.916208646,Mg,B,O,1.013683423875,,,
mp-1199652,MgBO3,Monoclinic,P2_1/c,14,40,417.859513930174,2.64231152314542,2.65069612287148,-269.86583731,-6.74664593275,Mg,B,O,0.182516128125001,,,
mp-546079,MgCO3,Orthorhombic,C222_1,20,10,90.7665999655049,3.08497894292866,3.07791836716469,-67.8809202,-6.78809202,Mg,C,O,0.378061632999994,97.4529945807918,76.4160561446674,86.9345253627296
mp-5348,MgCO3,Trigonal,R-3c,167,10,92.6077747230077,3.02364515778873,2.90286816224539,-71.67155231,-7.167155231,Mg,C,O,0,109.060276181193,101.534782504269,105.297529342731
mp-2647164,MgCO3,Monoclinic,C2/m,12,60,546.658886003146,3.07335770204456,3.07335776476808,-411.2889498,-6.85481583,Mg,C,O,0.314648656833326,,,
mp-1076820,MgCoO3,Cubic,Pm-3m,221,5,50.5516658201162,4.31089969681138,4.31090015240427,-26.49566774,-5.299133548,Mg,Co,O,0.551288547125001,,,
mp-756102,MgCoO3,Orthorhombic,Pnma,62,20,182.336697543939,4.78067583306392,4.85197593783347,-125.21134204,-6.260567102,Mg,Co,O,0.0919480421250007,,,
mp-761524,MgCoO3,Trigonal,R-3,148,10,95.380426271781,4.56955728497773,4.5695566952926,-57.86158738,-5.786158738,Mg,Co,O,0.0659707361250002,146.532314364961,145.075807326214,145.804060845587
mp-755711,MgCoO3,Monoclinic,C2/c,15,20,200.255352300218,4.35290559486357,4.29853576637998,-124.79968647,-6.2399843235,Mg,Co,O,0.103593163625,,,
mp-1346485,MgCrO3,Orthorhombic,Pnma,62,20,193.585086674638,4.26487075314721,4.26487075314721,-133.10486771,-6.6552433855,Mg,Cr,O,0.120496968000002,,,
mp-2225290,MgCrO3,Monoclinic,Pm,6,5,75.7734634508748,2.72395947342236,2.72395947342236,-33.73982861,-6.747965722,Mg,Cr,O,0.171648616000001,,,
mp-1076317,MgCuO3,Cubic,Pm-3m,221,5,51.9444260137228,4.34277401981036,4.34277492793186,-24.16232189,-4.832464378,Mg,Cu,O,0.498203377625001,,,
mp-1076368,MgFeO3,Cubic,Pm-3m,221,5,53.4065152857236,3.98444068623503,3.98444179683475,-28.60031208,-5.720062416,Mg,Fe,O,0.464023453625001,,,
mp-1279364,MgFeO3,Triclinic,P-1,2,20,208.42994947102,4.08377189467307,4.06495629799255,-122.5363021,-6.126815105,Mg,Fe,O,0.0702209631249993,,,
mp-1372708,MgFeO3,Orthorhombic,Pnma,62,20,199.099198194531,4.2751571948885,4.2751571948885,-121.96523949,-6.0982619745,Mg,Fe,O,0.107165139124999,,,
mp-752416,MgFeO3,Monoclinic,C2/c,15,20,224.715149663448,3.78781924998239,3.81109928552732,-133.47440166,-6.673720083,Mg,Fe,O,0.132809754125001,,,
mp-754508,MgFeO3,Trigonal,R-3,148,10,104.729195640112,4.06372055306742,4.35185361634766,-67.78393934,-6.778393934,Mg,Fe,O,0.0715508056250007,146.990386175396,144.42585260968,145.708119392538
mp-1303831,MgFeO3,Trigonal,R3,146,20,207.602050169573,4.10005762930868,4.10005682815975,-122.63316379,-6.1316581895,Mg,Fe,O,0.0703978456249992,,,
mp-4819,MgGeO3,Monoclinic,C2/c,15,20,217.505252047277,4.4262626998212,4.25306520116286,-127.20662069,-6.3603310345,Mg,Ge,O,0,,,
mp-3759,MgGeO3,Trigonal,R-3,148,10,101.029905765374,4.76460596918633,4.76460592342965,-63.40568848,-6.340568848,Mg,Ge,O,0.020074143000004,166.187443720675,162.166651004544,164.17704736261
mp-4575,MgGeO3,Orthorhombic,Pbca,61,80,896.051082623496,4.29768080334586,4.10448369115418,-508.74539515,-6.359317439375,Mg,Ge,O,0.00112177325000307,,,
mp-3047,MgGeO3,Orthorhombic,Cmcm,63,10,94.995142397062,5.06728744154103,5.06728964478322,-62.03526509,-6.203526509,Mg,Ge,O,0.156689857000003,,,
mp-1016827,MgGeO3,Cubic,Pm-3m,221,5,51.4030369747893,4.68228844447578,4.6822883694707,-29.23695333,-5.847390666,Mg,Ge,O,0.513226850000003,,,
mp-29483,MgInBr3,Orthorhombic,Pnma,62,20,583.873018438552,4.30963786597113,4.15546449905471,-60.28876493,-3.0144382465,Mg,In,Br,0.0112514614999988,,,
mp-1185889,MgInO3,Cubic,Pm-3m,221,5,58.5786067389349,5.30436075705685,5.30435919702451,-24.22962254,-4.845924508,Mg,In,O,0.799884499125,,,
mp-1232299,MgInS3,Monoclinic,C2/m,12,10,226.588474788647,3.44902566150958,3.41888144128275,-79.47163189,-3.9735815945,Mg,In,S,0.17458831725,,,
mp-1232401,MgInSe3,Trigonal,R-3,148,30,1133.75565812073,3.30424461136745,3.30424457301606,-103.54251605,-3.45141720166667,Mg,In,Se,0.277398523083334,,,
mp-1232193,MgInSe3,Monoclinic,C2/m,12,20,594.888035946876,4.19821971820295,4.19821993271577,-69.2475817,-3.462379085,Mg,In,Se,0.27927762775,,,
mp-1237970,MgInSe3,Monoclinic,C2/m,12,10,288.032602753911,4.33539581762032,4.33539519747715,-69.41721515,-3.4708607575,Mg,In,Se,0.26636553375,,,
mp-1016826,MgIrO3,Cubic,Pm-3m,221,5,60.2993737161064,7.28442268858126,7.28442212606341,-29.116051,-5.8232102,Mg,Ir,O,0.783825347000004,,,
mp-976446,MgMnO3,Cubic,Pm-3m,221,5,52.1321353574753,4.05295230583769,4.05295360792996,-31.21200048,-6.242400096,Mg,Mn,O,0.490212198,,,
mp-770581,MgMnO3,Orthorhombic,Pnma,62,20,191.231468192712,4.41954580388198,4.41954510121219,-133.17096407,-6.6585482035,Mg,Mn,O,0.0767369350000005,,,
mp-770618,MgMnO3,Trigonal,R-3,148,10,96.2594870272426,4.3899892827296,4.18166448911525,-67.34182721,-6.734182721,Mg,Mn,O,0,157.224186824868,155.434384641083,156.329285732976
mp-1185896,MgMoO3,Cubic,Pm-3m,221,5,64.1182487522513,4.35717462230264,4.3571755322669,-30.99245569,-6.198491138,Mg,Mo,O,0.640768282999999,,,
mp-1342607,MgMoO3,Orthorhombic,Pnma,62,20,223.94475808555,4.99005931066398,4.99005931066398,-132.16561676,-6.608280838,Mg,Mo,O,0.0599380910000003,,,
mp-1017629,MgNiH3,Cubic,Pm-3m,221,5,36.3948296411988,3.92482279252001,3.87336945329185,-18.32312541,-3.664625082,Mg,Ni,H,0.00498506325000037,,,
mp-1016843,MgOsO3,Cubic,Pm-3m,221,5,60.0879244515128,7.25514550317498,7.25514538695557,-32.51672447,-6.503344894,Mg,Os,O,0.648656036000004,,,
mp-976722,MgPbO3,Cubic,Pm-3m,221,5,63.0689358510153,7.35902669954819,7.35902502870176,-25.32234287,-5.064468574,Mg,Pb,O,0.500734861000002,,,
mp-675651,MgPS3,Monoclinic,C2/m,12,10,218.340852778742,2.30399484260291,2.25328896284126,-46.38760415,-4.638760415,Mg,P,S,0,,,
mp-30943,MgPSe3,Trigonal,R-3,148,10,249.712248823796,3.88560064823108,3.59276641354474,-41.02498072,-4.102498072,Mg,P,Se,0,20.7837345287186,2.46952141556534,11.626627972142
mp-1185941,MgReO3,Cubic,Pm-3m,221,5,60.3547483153132,7.11238631916663,7.11238566127517,-35.48549691,-7.097099382,Mg,Re,O,0.649530807,,,
mp-1016929,MgRhO3,Cubic,Pm-3m,221,5,59.3288109908425,4.90387193505541,4.90387238458101,-27.88439059,-5.576878118,Mg,Rh,O,0.716897825000002,,,
mp-1016829,MgRuO3,Cubic,Pm-3m,221,5,58.5623184227951,4.91601049027789,4.9160103735512,-30.96290064,-6.192580128,Mg,Ru,O,0.633980686999999,,,
mp-1347225,MgSbO3,Monoclinic,P2_1/c,14,20,244.893176148204,5.26351170837672,5.26351170837672,-118.43951044,-5.921975522,Mg,Sb,O,0.158619402708333,,,
mp-1342178,MgSbO3,Monoclinic,P2_1/m,11,20,245.430816261862,5.25198147319179,5.25198147319179,-117.64293444,-5.882146722,Mg,Sb,O,0.198446433708332,,,
mp-1232175,MgScS3,Monoclinic,C2/m,12,10,240.868434996523,2.28129522807667,2.25376151695214,-104.70594217,-5.2352971085,Mg,Sc,S,0.317098725499999,,,
mp-1232226,MgScS3,Trigonal,R-3,148,30,632.479936717056,2.60636889545011,2.60636907450331,-160.5729679,-5.35243226333333,Mg,Sc,S,0.214182141499999,,,
mp-1232171,MgScSe3,Trigonal,R-3,148,10,243.816794831045,4.17000760438037,4.17000737490134,-145.68004818,-4.856001606,Mg,Sc,Se,0.181565915249999,,,
mp-1232150,MgScSe3,Monoclinic,C2/m,12,10,265.917349713468,3.82343570141866,3.69659242362008,-94.70212699,-4.7351063495,Mg,Sc,Se,0.29154052125,,,
mp-12271,MgSeO3,Orthorhombic,Pnma,62,20,227.010962514042,4.42583829709797,4.25130204656974,-112.04286102,-5.602143051,Mg,Se,O,0,,,
mp-642228,MgSiO3,Orthorhombic,Pbca,61,80,897.2779016847,2.97253473657957,2.98675522253784,-558.8881484,-6.986101855,Mg,Si,O,0.204268391874998,,,
mp-1020118,MgSiO3,Orthorhombic,Pca2_1,29,80,851.195350544421,3.13346369833561,3.14007399874381,-574.37478321,-7.179684790125,Mg,Si,O,0.0167920121249967,,,
mp-5924,MgSiO3,Trigonal,R-3,148,10,90.8110549254392,3.67134504344337,3.67601974893268,-70.81262212,-7.081262212,Mg,Si,O,0.115378104999997,193.453117447216,188.332072512875,190.892594980045
mp-557803,MgSiO3,Orthorhombic,Pna2_1,33,40,419.760520307513,3.17703738451753,3.05226098638581,-287.4143549,-7.1853588725,Mg,Si,O,0.010944861999997,,,
mp-642209,MgSiO3,Orthorhombic,Pna2_1,33,40,407.75547752521,3.27057498689039,3.27057524827835,-269.30481599,-6.73262039975,Mg,Si,O,0.447468404999997,,,
mp-5026,MgSiO3,Orthorhombic,Pbcn,60,40,428.862399929726,3.10961013551206,2.98755009797825,-287.59637525,-7.18990938125,Mg,Si,O,0.00663840874999799,,,
mp-556940,MgSiO3,Orthorhombic,Pbca,61,80,895.48558211409,2.97848428204306,3.01379503474372,-566.68251906,-7.08353148825,Mg,Si,O,0.107531239499997,,,
mp-657336,MgSiO3,Orthorhombic,Pna2_1,33,40,415.784660506522,3.20741718546536,3.2693905508833,-275.64172032,-6.891043008,Mg,Si,O,0.287785683499998,,,
mp-1020115,MgSiO3,Monoclinic,Pc,7,80,880.81853704737,3.02808083497402,3.05132563075533,-574.81652112,-7.185206514,Mg,Si,O,0.0110891789999972,,,
mp-642210,MgSiO3,Orthorhombic,Pna2_1,33,40,540.679245915951,2.46651758068185,2.48795242133274,-281.99775714,-7.0499439285,Mg,Si,O,0.144595414999997,,,
mp-530986,MgSiO3,Monoclinic,C2,5,160,1558.07648061844,3.42369551726283,3.42369513850419,-1135.29474866,-7.095592179125,Mg,Si,O,0.101497966749998,,,
mp-1199778,MgSiO3,Orthorhombic,Pna2_1,33,40,446.773889185393,2.98494360982701,2.98494346895565,-287.33831755,-7.18345793875,Mg,Si,O,0.0101824177499967,,,
mp-1020361,MgSiO3,Monoclinic,P2/c,13,80,887.835805369133,3.0041475180358,3.00414754154245,-575.01922367,-7.187740295875,Mg,Si,O,0.00881994474999814,,,
mp-4391,MgSiO3,Orthorhombic,Cmcm,63,10,84.1979956765026,3.95969896565385,3.96487409055764,-69.36566419,-6.936566419,Mg,Si,O,0.259424540999998,201.095329361445,197.920511709201,199.507920535323
mp-554137,MgSiO3,Monoclinic,P2_1/c,14,40,441.379787013244,3.02142260429675,3.05528722481481,-283.38258499,-7.08456462475,Mg,Si,O,0.106837850249997,,,
mp-1180703,MgSiO3,Monoclinic,C2/c,15,20,217.492624070963,3.06583929284512,3.06583908972665,-135.90973741,-6.7954868705,Mg,Si,O,0.400791761999998,,,
mp-1020125,MgSiO3,Orthorhombic,Pca2_1,29,80,889.718263333428,2.99779136951744,3.00613862705864,-574.95463263,-7.186932907875,Mg,Si,O,0.00946739324999779,,,
mp-772412,MgSiO3,Tetragonal,I4_1/a,88,80,782.16412121471,3.41001288448366,3.41245004820564,-568.74765098,-7.10934563725,Mg,Si,O,0.0870238223749968,,,
mp-603930,MgSiO3,Monoclinic,C2/c,15,20,215.116857939795,3.09969864364311,3.05443235083223,-143.21823933,-7.1609119665,Mg,Si,O,0.00771661099999754,106.612717739432,102.171722449788,104.39222009461
mp-644879,MgSiO3,Orthorhombic,Pbcn,60,40,422.722874133878,3.154773368472,3.15477330356941,-285.89675843,-7.14741896075,Mg,Si,O,0.0491323894999969,,,
mp-1180468,MgSiO3,Monoclinic,C2/c,15,20,321.557784739593,2.07364730205721,2.07364692412556,-116.90211203,-5.8451056015,Mg,Si,O,1.6645903005,,,
mp-657338,MgSiO3,Orthorhombic,Pbca,61,80,882.064895247514,3.02380215502689,3.02380216255619,-564.32297832,-7.054037229,Mg,Si,O,0.131476958624997,,,
mp-1020117,MgSiO3,Monoclinic,Pc,7,80,891.178378282648,2.99287976023703,3.00674092797292,-574.95134118,-7.18689176475,Mg,Si,O,0.00945927224999732,,,
mp-5834,MgSiO3,Orthorhombic,Pbca,61,80,865.755928983405,3.08076403733658,3.08076426957011,-575.22650729,-7.190331341125,Mg,Si,O,0.00617185374999796,,,
mp-642216,MgSiO3,Monoclinic,P2_1/c,14,40,391.206028708056,3.40893229576663,3.44700706774725,-282.48865922,-7.0622164805,Mg,Si,O,0.124022339999997,,,
mp-3547,MgSiO3,Orthorhombic,Pnma,62,20,167.931616954007,3.97064855847468,3.97064864541044,-139.62093596,-6.981046798,Mg,Si,O,0.215346297999998,,,
mp-1256030,MgSiO3,Orthorhombic,Pnma,62,40,422.527810931763,3.15622979377533,3.15622964928327,-269.48932945,-6.73723323625,Mg,Si,O,0.440156862999998,,,
mp-1020123,MgSiO3,Monoclinic,P2/c,13,80,873.637487736002,3.05297079001832,3.07782748439671,-574.17858074,-7.17723225925,Mg,Si,O,0.0189632394999979,,,
mp-1016928,MgSiO3,Cubic,Pm-3m,221,5,43.8830602686278,3.79871770962978,3.79871764877852,-33.65533594,-6.731067188,Mg,Si,O,0.465560997999997,,,
mp-3470,MgSiO3,Monoclinic,P2_1/c,14,40,414.537150667558,3.21706960018884,3.08414081022653,-287.62144962,-7.1905362405,Mg,Si,O,0.00598380274999677,102.449488735187,90.3554603714925,96.4024745533399
mp-4321,MgSiO3,Monoclinic,C2/c,15,20,201.481541649047,3.30947156411092,3.1735453768514,-143.57769939,-7.1788849695,Mg,Si,O,0.0175747644999982,112.236102315836,84.3464784285135,98.2912903721747
mp-1195746,MgSiO3,Monoclinic,P2/c,13,40,436.531564767095,3.05497923448679,3.05497923324381,-287.06108503,-7.17652712575,Mg,Si,O,0.0199288792499974,,,
mp-1196002,MgSiO3,Monoclinic,P2/c,13,80,876.374055870299,3.0434375746944,3.04343747580901,-574.50995113,-7.181374389125,Mg,Si,O,0.0151444311249982,,,
mp-1182302,MgSiO3,Monoclinic,P2_1/c,14,40,499.101085959806,2.67199351609685,2.67199324786875,-275.86613544,-6.896653386,Mg,Si,O,0.292971164749998,,,
mp-603907,MgSiO3,Monoclinic,C2/c,15,20,194.440177023856,3.42931920237318,3.44512634708732,-139.99297235,-6.9996486175,Mg,Si,O,0.189594975499999,,,
mp-1020124,MgSiO3,Monoclinic,P2_1/c,14,80,874.865758532533,3.04868456115695,3.06457806848311,-575.03676415,-7.187959551875,Mg,Si,O,0.00849737399999739,,,
mp-1181528,MgSiO3,Monoclinic,P2_1/c,14,40,516.865103856169,2.58016038539256,2.58016026639335,-275.80482813,-6.89512070325,Mg,Si,O,0.298776404499997,,,
mp-769348,MgSnO3,Orthorhombic,Pnma,62,20,228.083739376374,5.56260401032577,5.56260384426828,-122.14582852,-6.107291426,Mg,Sn,O,0.0730104980000013,,,
mp-1016820,MgSnO3,Cubic,Pm-3m,221,5,65.2188891249415,4.86338981071327,4.86338973280714,-27.75376395,-5.55075279,Mg,Sn,O,0.629874776000001,,,
mp-1176491,MgSnO3,Trigonal,R-3,148,10,113.117877703867,5.60804158060043,5.40772658324975,-61.76676641,-6.176676641,Mg,Sn,O,0.00359464900000006,,,
mp-769347,MgSO3,Monoclinic,P2_1/c,14,20,248.290174370196,2.79201500986219,2.79201524154867,-119.27465836,-5.963732918,Mg,S,O,0.0734270744285706,,,
mp-769322,MgSO3,Monoclinic,P2_1/c,14,40,511.061657476366,2.71290120673921,2.71290144504767,-239.18753771,-5.97968844275,Mg,S,O,0.0573955014285703,,,
mp-769397,MgSO3,Trigonal,R-3,148,30,366.176731240082,2.8397348923369,2.83973471044496,-179.66032772,-5.98867759066667,Mg,S,O,0.0484099834285692,,,
mp-1345923,MgTiO3,Orthorhombic,Pnma,62,20,201.891531040244,3.95355487598653,3.95355487598653,-154.83595856,-7.741797928,Mg,Ti,O,0.0829077270000003,,,
mp-1016830,MgTiO3,Cubic,Pm-3m,221,5,56.7334136610128,3.51728018577286,3.51727903099295,-36.84623246,-7.369246492,Mg,Ti,O,0.455477978999999,,,
mp-3771,MgTiO3,Trigonal,R-3,148,10,102.518619146785,3.8928989368346,3.78000701706389,-78.24196883,-7.824196883,Mg,Ti,O,0,164.475627724531,160.556475345115,162.516051534823
mp-1210617,MgTlCl3,Orthorhombic,Pnma,62,20,491.498357716635,4.52786156514166,4.34910602028501,-68.07656559,-3.4038282795,Mg,Tl,Cl,0.0183001889999987,,,
mp-998739,MgTlF3,Cubic,Pm-3m,221,5,67.7471660991439,7.00233907467003,6.65235292841891,-23.73651945,-4.74730389,Mg,Tl,F,0,,,
mp-1185613,MgTlO3,Cubic,Pm-3m,221,5,62.5062070527871,7.350449885126,7.35044882279066,-22.75054462,-4.550108924,Mg,Tl,O,0.569437487625,,,
mp-1185614,MgUO3,Cubic,Pm-3m,221,5,55.4353441390223,9.29584907028047,9.29584818998289,-39.88837848,-7.977675696,Mg,U,O,0.623524714000014,,,
mp-545348,MgVO3,Orthorhombic,Cmmm,65,10,144.723092920406,2.82819603936949,2.88742097256401,-73.87708736,-7.387708736,Mg,V,O,0.262183254,,,