material_id,formula_pretty,crystal_system,space_group,number,nsites,volume,density,density,energy,energy_per_atom,A_site,B_site,X_site,energy_above_hull,k_voigt,k_reuss,k_vrh
mp-989620,LaTaN3,Monoclinic,P2_1/c,14,20,277.670798106945,8.65636581141505,8.65636615874031,-190.34455417,-9.5172277085,La,Ta,N,0.0377326022777833,,,
mp-1239192,LaTaO3,Cubic,Pm-3m,221,5,67.568984002896,9.04012215809228,9.040121946694,-45.26314133,-9.052628266,La,Ta,O,0.3356782172,,,
mp-989619,LaTcN3,Monoclinic,C2/c,15,20,322.069063381729,5.75239112748571,5.62176341526071,-173.18291397,-8.6591456985,La,Tc,N,0,,,
mp-989406,LaTcN3,Monoclinic,P2/m,10,10,142.518428796362,6.49974616714966,6.49974699705972,-86.1600708,-8.61600708,La,Tc,N,0.0409553974999994,,,
mp-989593,LaTcN3,Trigonal,R-3c,167,10,124.181841777168,7.45949325650651,7.45949228458754,-86.23613688,-8.623613688,La,Tc,N,0.0336034905000009,,,
mp-8020,LaTiO3,Cubic,Pm-3m,221,5,62.0491878199889,6.28285208757026,6.28285122516387,-43.59468629,-8.718937258,La,Ti,O,0.0675842517499969,,,
mp-22013,LaTiO3,Orthorhombic,Pnma,62,20,250.787146587822,6.2179561358076,6.21795551127331,-175.237116,-8.7618558,La,Ti,O,0.0254489547499954,,,
mp-1211414,LaTiS3,Orthorhombic,Pnma,62,20,403.54764938691,4.65747764087663,4.65747724647902,-136.3815964,-6.81907982,La,Ti,S,0.0236158414999998,,,
mp-29257,LaTlO3,Hexagonal,P6_3mc,186,10,158.822022140222,8.18208068605108,8.19547210414937,-63.48748827,-6.348748827,La,Tl,O,0.155897580125,,,
mp-13374,LaTmO3,Orthorhombic,Pnma,62,20,300.143792728473,7.87466161794881,7.87466025586584,-168.02990639,-8.4014953195,La,Tm,O,0.0204909143750012,,,
mp-556841,LaTmS3,Orthorhombic,Pnma,62,60,1395.25774863717,5.77024886812392,5.6974579290844,-390.65773643,-6.51096227383333,La,Tm,S,0.0253203549166665,,,
mp-1199053,LaTmS3,Monoclinic,P2_1/m,11,40,933.386645763679,5.75037471081279,5.71757850670846,-260.22317835,-6.50557945875,La,Tm,S,0,,,
mp-989403,LaVN3,Triclinic,P1,1,10,131.386533905514,5.86094048679245,5.86094024404162,-88.42042436,-8.842042436,La,V,N,0.0343115819999991,,,
mp-19053,LaVO3,Cubic,Pm-3m,221,5,61.6330579647947,6.40810645502479,6.40247921041969,-40.59676081,-8.119352162,La,V,O,0.177259386999999,,,
mp-19350,LaVO3,Orthorhombic,Pnma,62,20,241.481998845642,6.54212236895678,6.25227377340349,-165.81109096,-8.290554548,La,V,O,0,,,
mp-1211380,LaVS3,Orthorhombic,Pnma,62,20,396.388879296319,4.79310990475243,4.79311015211488,-136.70590803,-6.8352954015,La,V,S,0.028362465749999,,,
mp-989630,LaWN3,Orthorhombic,Pnma,62,20,257.591971567053,9.40568877905338,9.40568790086098,-191.13823649,-9.5569118245,La,W,N,0.0306093235000002,,,
mp-989455,LaWN3,Trigonal,R-3c,167,10,128.939328376011,9.39523242077489,9.39523414545185,-95.53733127,-9.553733127,La,W,N,0.0340931310000006,,,
mp-989626,LaWN3,Orthorhombic,Amm2,38,10,131.994198918657,9.17778938919717,9.02453786197543,-95.71707156,-9.571707156,La,W,N,0.0147454049999993,,,
mp-989497,LaWN3,Tetragonal,P4mm,99,5,67.0115554856844,9.03885120626716,8.70483625504236,-47.84023663,-9.568047326,La,W,N,0.0185021499999998,,,
mp-989646,LaWN3,Monoclinic,P2_1/m,11,10,170.604436047599,7.10072367598488,6.99996801814527,-95.70048094,-9.570048094,La,W,N,0.0160869169999991,,,
mp-989699,LaWN3,Monoclinic,Cm,8,5,61.8138524219886,9.79889548058896,9.79889532362149,-35.70185926,-7.140371852,La,W,N,2.446128064,,,
mp-989524,LaWN3,Trigonal,R3c,161,10,129.99677793674,9.31880756968257,9.21196800383691,-95.86373744,-9.586373744,La,W,N,0,173.754280276408,166.818888250257,170.286584263333
mp-989633,LaWN3,Monoclinic,C2/c,15,20,332.330393676126,7.29042531964033,7.15218979005296,-191.50791752,-9.575395876,La,W,N,0.0109000634999994,,,
mp-989601,LaWN3,Trigonal,R3m,160,5,66.2999816586655,9.13586194116918,9.13586074940886,-47.81567286,-9.563134572,La,W,N,0.0233291480000002,,,
mp-1189511,LaYbO3,Orthorhombic,Pnma,62,20,305.877922083713,7.81619702054598,7.77905578670208,-142.42525336,-7.121262668,La,Yb,O,0.118742511249999,,,
mp-22530,LaYbO3,Orthorhombic,Pna2_1,33,20,307.560118162446,7.77344643228011,7.77344600585518,-142.44991486,-7.122495743,La,Yb,O,0.117460222249999,,,
mp-684002,LaYbS3,Orthorhombic,Pnma,62,60,1444.33681931714,5.63081840217219,5.63081905873406,-333.82828554,-5.563804759,La,Yb,S,0.229355086666669,,,
mp-1188442,LaYbS3,Orthorhombic,Pna2_1,33,20,498.756191232923,5.43538672408362,5.43538652566811,-110.33444722,-5.516722361,La,Yb,S,0.277008938500003,,,
mp-21106,LaYbS3,Orthorhombic,Pnma,62,20,499.024623936908,5.43246294941286,5.3955664805708,-110.37726369,-5.5188631845,La,Yb,S,0.218886431500002,,,
mp-8215,LaYbS3,Orthorhombic,Cmcm,63,10,251.573901404133,5.38794518280943,5.38690077880676,-55.6345131,-5.56345131,La,Yb,S,0.230776138000002,,,
mp-11784,LaYbSe3,Orthorhombic,Cmcm,63,10,284.705131569081,6.40203517693868,6.40203461954606,-50.8679873,-5.08679873,La,Yb,Se,0.193657835000001,,,
mp-10429,LaYO3,Orthorhombic,Pnma,62,20,311.943115976975,5.8727692254507,5.87312307838137,-174.4071738,-8.72035869,La,Y,O,0.0390250280000011,,,
mp-1200447,LaYS3,Monoclinic,P2_1/m,11,40,956.475893385198,4.5000624137518,4.47406399474025,-276.27045471,-6.90676136775,La,Y,S,0,,,
mp-1184965,LaZnO3,Cubic,Pm-3m,221,5,60.610463625041,6.91258605321171,6.91258678717347,-31.59550024,-6.319100048,La,Zn,O,0.13046277975,,,
mp-1185065,LaZrO3,Cubic,Pm-3m,221,5,73.7581640451021,6.26156938037426,6.26157080300128,-43.38810299,-8.677620598,La,Zr,O,0.286762757787489,,,
mp-1185297,LiAcO3,Cubic,Pm-3m,221,5,60.2106604800675,7.77555091196744,7.7755480497128,-30.8489268,-6.16978536,Li,Ac,O,0.129256687214284,,,
mp-759066,LiAgF3,Trigonal,R3c,161,10,130.286555999759,4.37939174561457,4.37939153097118,-38.86506463,-3.886506463,Li,Ag,F,0.0599134040000013,,,
mp-752699,LiAgF3,Orthorhombic,Cmmm,65,10,131.550102083258,4.33732744311197,4.33494112058786,-38.97529845,-3.897529845,Li,Ag,F,0.0492247270000012,,,
mp-757915,LiAgF3,Triclinic,P-1,2,10,131.641881691367,4.33430349505033,4.33430376762771,-38.74503188,-3.874503188,Li,Ag,F,0.0712129680000011,,,
mp-760151,LiAgF3,Hexagonal,P6_122,178,30,389.106309946866,4.39912579151808,4.39816719282489,-116.68599143,-3.88953304766667,Li,Ag,F,0.0562918990000014,,,
mp-1398557,LiAgF3,Triclinic,P-1,2,10,131.641855187762,4.33430436768063,4.33430436768063,-30.25806144,-3.025806144,Li,Ag,F,0.922600741000001,,,
mp-752837,LiAgF3,Monoclinic,P2_1/c,14,20,259.464818366287,4.39809814295834,4.39809831737682,-77.99084501,-3.8995422505,Li,Ag,F,0.0501926965000017,,,
mp-756821,LiAgF3,Monoclinic,P2_1/c,14,20,243.255696839543,4.6911614019569,4.69116838560494,-77.46779485,-3.8733897425,Li,Ag,F,0.0728435665000013,,,
mp-752605,LiAgF3,Monoclinic,C2/c,15,20,279.292936514284,4.08585963562824,4.08585915664206,-77.9113661,-3.895568305,Li,Ag,F,0.0510485670000014,,,
mp-1185313,LiAlO3,Cubic,Pm-3m,221,5,51.0313302646013,2.66566805342301,2.6656685928415,-28.95633793,-5.791267586,Li,Al,O,0.37075038698214,,,
mp-9657,LiAsO3,Trigonal,R-3,148,10,94.3920039696898,4.56900844459607,4.30037759271111,-58.54916997,-5.854916997,Li,As,O,0,,,
mp-559767,LiAsO3,Monoclinic,C2/c,15,20,229.160008077035,3.76398889892584,3.45617845643748,-116.3376048,-5.81688024,Li,As,O,0.0357749169999995,,,
mp-24818,LiBeH3,Triclinic,P-1,2,20,175.244590695974,0.719270205437965,0.719270194559925,-67.66837298,-3.383418649,Li,Be,H,0.00528859595833309,,,
mp-977298,LiBeH3,Monoclinic,C2/c,15,20,154.362496723706,0.816572777890471,0.816572860537426,-67.42334828,-3.371167414,Li,Be,H,0.0173134329583338,,,
mp-24817,LiBeH3,Triclinic,P-1,2,30,240.926857755875,0.784770618306323,0.772448035771054,-101.59956456,-3.386652152,Li,Be,H,0.00203590162500022,,,
mp-1079676,LiBeH3,Monoclinic,C2,5,10,90.2195643658664,0.698563629949616,0.700075518830923,-33.80773269,-3.380773269,Li,Be,H,0.00790264795833373,,,
mp-24342,LiBeH3,Orthorhombic,Pnma,62,20,124.612857010701,1.01151852044417,1.01151841450801,-65.65123193,-3.2825615965,Li,Be,H,0.106248287458333,,,
mp-977148,LiBeH3,Orthorhombic,Cmcm,63,30,247.51939548407,0.763868701108906,0.763868558874306,-101.44986457,-3.38166215233333,Li,Be,H,0.00697961862499996,,,
mp-570218,LiBeH3,Monoclinic,P2_1/c,14,60,485.255000416245,0.779269946586823,0.773629673843226,-203.20375825,-3.38672930416667,Li,Be,H,0.00199708412500055,,,
mp-982975,LiBeO3,Cubic,Pm-3m,221,5,43.1416576665112,2.46151339373529,2.46151390173792,-25.14414169,-5.028828338,Li,Be,O,0.570123488428573,,,
mp-29077,LiBiO3,Orthorhombic,Pccn,56,40,473.461939007118,7.40501012031477,7.04885049126575,-213.99864716,-5.349966179,Li,Bi,O,0,,,
mp-1185302,LiBO3,Cubic,Pm-3m,221,5,36.1847811922237,3.01731203393948,3.01731124668702,-27.54216748,-5.508433496,Li,B,O,0.955796148066665,,,
mp-1197831,LiBrO3,Orthorhombic,Pbca,61,40,619.949427557576,2.88942796314865,2.88942774657331,-151.29531974,-3.7823829935,Li,Br,O,0.253321242197369,,,
mp-1017626,LiCaF3,Cubic,Pm-3m,221,5,53.2101549813312,3.24599051784231,3.24598992214901,-26.33002352,-5.266004704,Li,Ca,F,0.187439322000001,,,
mp-1079935,LiCaH3,Trigonal,R-3c,167,10,97.420537896034,1.70596589605188,1.70596640295926,-32.92259363,-3.292259363,Li,Ca,H,0.0214807280000007,,,
mp-975333,LiCaO3,Cubic,Pm-3m,221,5,53.9977220456696,2.92197090213362,2.9219716206638,-24.94070385,-4.98814077,Li,Ca,O,0.348430505428571,,,
mp-1185203,LiCdO3,Cubic,Pm-3m,221,5,53.2310810725071,5.22047531826005,5.22047427706355,-19.0297112,-3.80594224,Li,Cd,O,0.538053035428572,,,
mp-973613,LiCeO3,Cubic,Pm-3m,221,5,49.9726640671171,6.48147914044484,6.48147967009808,-33.35068374,-6.670136748,Li,Ce,O,0.471113553,,,
mp-759500,LiCoF3,Triclinic,P1,1,15,171.610472713947,3.566730687263,3.56673023065603,-75.66967957,-5.04464530466667,Li,Co,F,0.0880068559999989,,,
mp-764370,LiCoF3,Trigonal,P3,143,15,172.261148422278,3.5532582064534,3.54479504056782,-73.54628002,-4.90308533466667,Li,Co,F,0.0886815759999999,,,
mp-1185311,LiCrO3,Cubic,Pm-3m,221,5,49.7945631362843,3.56605685569714,3.56605752555253,-30.43474829,-6.086949658,Li,Cr,O,0.409366555166663,,,
mp-760814,LiCuF3,Orthorhombic,Amm2,38,20,226.77268827836,3.73394505210334,3.73402005736431,-86.84767581,-4.3423837905,Li,Cu,F,0.0725878380000005,,,
mp-758052,LiCuF3,Trigonal,R3c,161,10,100.690276875797,4.20475930557649,3.97357046002289,-44.06446006,-4.406446006,Li,Cu,F,0.0114885880000006,76.021734539509,75.9823318162871,76.0020331778981
mp-753405,LiCuF3,Monoclinic,P2_1/c,14,20,223.781672958177,3.78385211870058,3.54088123739625,-87.85435269,-4.3927176345,Li,Cu,F,0.0191538105000006,,,
mp-761262,LiCuF3,Triclinic,P1,1,20,226.356588367779,3.74080897514398,3.74080906329128,-87.66361975,-4.3831809875,Li,Cu,F,0.0294869970000002,,,
mp-761897,LiCuF3,Hexagonal,P6_122,178,30,323.594620289299,3.92508112430366,3.92506925286251,-131.13801521,-4.37126717366667,Li,Cu,F,0.0413975243333331,,,
mp-1185308,LiDyO3,Cubic,Pm-3m,221,5,49.6204506632399,7.27656200990004,7.27656094284834,-30.59664258,-6.119328516,Li,Dy,O,0.412528428214286,,,
mp-1185310,LiErO3,Cubic,Pm-3m,221,5,48.8446719775594,7.55392096394289,7.55391916908056,-30.43635022,-6.087270044,Li,Er,O,0.460419717214287,,,
mp-541365,LiEuH3,Cubic,Pm-3m,221,5,51.3415487042838,5.23726179681845,5.1951326929684,-24.90591,-4.981182,Li,Eu,H,0,,,
mp-1185344,LiEuO3,Cubic,Pm-3m,221,5,53.3040894056763,6.44548758707369,6.44548928210822,-34.91388956,-6.982777912,Li,Eu,O,0.264443397089286,,,
mp-777683,LiFeF3,Tetragonal,I4_1/a,88,80,910.069027479099,3.49690183016314,3.49690163901704,-416.91905816,-5.211488227,Li,Fe,F,0.108397602999999,,,
mp-754707,LiFeF3,Monoclinic,C2/c,15,20,263.571165582822,3.01856050976718,3.08095882284155,-109.54290939,-5.4771454695,Li,Fe,F,0.0592499664999995,,,
mp-777888,LiFeF3,Trigonal,R3,146,20,228.606399523823,3.48024164502316,3.48024139269991,-105.19843856,-5.259921928,Li,Fe,F,0.0362696869999999,,,
mp-755103,LiFeF3,Monoclinic,C2/m,12,20,246.415197188345,3.22871933638695,3.36268938699027,-109.64071576,-5.482035788,Li,Fe,F,0.0975542664999995,,,
mp-776077,LiFeF3,Monoclinic,P2_1/c,14,40,506.003274966174,3.14466546484228,3.1467844379533,-219.75028951,-5.49375723775,Li,Fe,F,0.0408456289999997,,,
mp-780803,LiFeF3,Orthorhombic,Pbca,61,80,1017.85417534788,3.12659919745257,3.16363567813917,-439.45247228,-5.4931559035,Li,Fe,F,0.0391842718749995,,,
mp-1176718,LiFeF3,Triclinic,P-1,2,30,369.942384908314,3.2259300815401,3.22592983474158,-156.41519705,-5.21383990166667,Li,Fe,F,0.0823488533333325,,,
mp-1176705,LiFeF3,Orthorhombic,Cmcm,63,20,241.254762121219,3.29778158551689,3.2977807213364,-104.55567081,-5.2277835405,Li,Fe,F,0.0690037174999993,,,
mp-1176706,LiFeF3,Orthorhombic,Pbcm,57,20,234.244097666434,3.39648050844194,3.39651753151929,-105.29135549,-5.2645677745,Li,Fe,F,0.033455749499999,,,
mp-754051,LiFeF3,Trigonal,R-3,148,10,112.614262828582,3.53243670898356,3.5875889241416,-55.16324734,-5.516324734,Li,Fe,F,0.246351935999999,,,
mp-755575,LiFeF3,Orthorhombic,Pnma,62,20,242.202367801863,3.28487916597277,3.40042124011953,-109.08143809,-5.4540719045,Li,Fe,F,0.0955571619999995,,,
mp-754581,LiFeF3,Orthorhombic,Pnma,62,20,237.406321561598,3.35123979306162,3.47356769633339,-109.57850347,-5.4789251735,Li,Fe,F,0.0819607864999998,,,
mp-776604,LiFeF3,Triclinic,P-1,2,60,682.933510005031,3.49494716668282,3.4544015617592,-329.27679984,-5.487946664,Li,Fe,F,0.0674867954999989,,,
mp-755179,LiFeF3,Monoclinic,P2_1/m,11,10,122.941423288473,3.2357097008499,3.3782500954078,-54.72143354,-5.472143354,Li,Fe,F,0.100753395,,,
mp-754816,LiFeF3,Orthorhombic,Pnma,62,20,225.315185137433,3.53107808271477,3.57563185988205,-109.70658793,-5.4853293965,Li,Fe,F,0.0394821099999998,,,
mp-754994,LiFeF3,Monoclinic,C2/c,15,20,246.464856840322,3.22806878895948,3.27449031230589,-109.94530209,-5.4972651045,Li,Fe,F,0.0550952464999996,,,
mp-761166,LiFeF3,Monoclinic,Cc,9,10,113.164578897301,3.51525857160499,3.54817417850953,-55.03435522,-5.503435522,Li,Fe,F,0.0239755149999992,,,
mp-755136,LiFeF3,Orthorhombic,Cmcm,63,10,102.625802358659,3.87624502637801,4.00196267881752,-54.58925854,-5.458925854,Li,Fe,F,0.0877690239999991,,,
mp-1176709,LiFeF3,Cubic,P2_13,198,20,230.635897904518,3.44961699011395,3.44983542822605,-105.07781575,-5.2538907875,Li,Fe,F,0.0561070030000002,,,
mp-777622,LiFeF3,Triclinic,P1,1,20,239.55489289752,3.32118247437328,3.32118265209973,-104.91806923,-5.2459034615,Li,Fe,F,0.0515321674999996,,,
mp-777899,LiFeF3,Orthorhombic,Pnma,62,20,256.317489842243,3.1039844859252,3.10418606315032,-104.55027045,-5.2275135225,Li,Fe,F,0.0671695319999994,,,
mp-756113,LiFeF3,Triclinic,P-1,2,20,245.39499242053,3.24214240923952,3.28229011955697,-110.04183046,-5.502091523,Li,Fe,F,0.0438896059999996,,,
mp-776080,LiFeF3,Orthorhombic,Pccn,56,40,460.83351136849,3.45289781369841,3.48933759435494,-219.90937422,-5.4977343555,Li,Fe,F,0.0283753172499992,,,
mp-776017,LiFeF3,Orthorhombic,Pbcn,60,40,534.384040417925,2.97765446482793,3.04904453727715,-219.47048222,-5.4867620555,Li,Fe,F,0.0506295194999993,,,
mp-1176698,LiFeF3,Orthorhombic,C222_1,20,10,108.894429332465,3.65310474015413,3.65310506775435,-52.60567076,-5.260567076,Li,Fe,F,0.0359197289999997,,,
mp-1176724,LiFeF3,Triclinic,P-1,2,90,1154.43520689789,3.10127825480804,3.10127812244989,-469.93292517,-5.22147694633333,Li,Fe,F,0.191229781444444,,,
mp-775760,LiFeF3,Triclinic,P-1,2,50,641.296337190387,3.10155175463529,3.14439812354135,-272.54629066,-5.4509258132,Li,Fe,F,0.0845889271999996,,,
mp-776027,LiFeF3,Tetragonal,P4_2/n,86,40,473.540324787811,3.36024397625742,3.39985358398633,-217.69292405,-5.44232310125,Li,Fe,F,0.0925891844999995,,,
mp-1097043,LiFeF3,Tetragonal,I4/mcm,140,10,124.856678480419,3.18607511277974,3.18607382381624,-51.18955081,-5.118955081,Li,Fe,F,0.177927554999999,,,
mp-780639,LiFeF3,Monoclinic,P2_1/m,11,10,117.40262695151,3.38836332968176,3.40354812898767,-54.9798918,-5.49798918,Li,Fe,F,0.0316620079999996,,,
mp-777489,LiFeF3,Trigonal,R-3,148,30,477.306982725518,2.5002950116041,2.50029504344927,-156.13394459,-5.20446481966667,Li,Fe,F,0.0924484866666662,,,
mp-777470,LiFeF3,Trigonal,R-3c,167,30,349.062297171054,3.41889765117658,3.42981453096848,-156.83696461,-5.22789882033333,Li,Fe,F,0.212897371999999,,,
mp-1407616,LiFeF3,Orthorhombic,Cmmm,65,10,121.139693865615,3.28383491221386,3.28383491221386,-47.4877066,-4.74877066,Li,Fe,F,0.567177544999999,,,
mp-760354,LiFeF3,Triclinic,P1,1,15,180.532010577884,3.30525391062868,3.32848751359937,-81.67763608,-5.44517573866667,Li,Fe,F,0.0918472629999991,,,
mp-1446564,LiFeF3,Hexagonal,P6_322,182,10,108.895138195384,3.65308095993279,3.65308095993279,-49.01392561,-4.901392561,Li,Fe,F,0.414555643999999,,,
mp-777522,LiFeF3,Orthorhombic,Cmc2_1,36,10,117.012483266862,3.39966082989253,3.39966748129646,-52.74406807,-5.274406807,Li,Fe,F,0.0229207009999994,,,
mp-776524,LiFeF3,Triclinic,P-1,2,70,894.241946968856,3.11394394015451,3.13040404856704,-382.12502583,-5.45892894042857,Li,Fe,F,0.0769612691428563,,,
mp-756109,LiFeF3,Orthorhombic,Pnma,62,20,217.729180625903,3.6541060305031,3.71181895260837,-109.49375041,-5.4746875205,Li,Fe,F,0.0633377274999996,,,
mp-777672,LiFeF3,Orthorhombic,Amm2,38,10,121.138669713662,3.28386267499141,3.28386308927606,-52.28409604,-5.228409604,Li,Fe,F,0.069146599999999,,,
mp-776026,LiFeF3,Tetragonal,P4_2/n,86,40,481.649140546799,3.30367250749535,3.36678009951056,-217.74599137,-5.44364978425,Li,Fe,F,0.101294750249999,,,
mp-1176707,LiFeF3,Triclinic,P-1,2,30,388.707420278824,3.07019677436662,3.07019657445218,-156.70794616,-5.22359820533333,Li,Fe,F,0.0726000226666663,,,
mp-760833,LiFeO3,Monoclinic,Cm,8,60,633.725810376258,3.48342748330491,3.62224677399255,-384.79355264,-6.41322587733333,Li,Fe,O,0.131203345433336,,,
mp-756941,LiFeO3,Orthorhombic,Pnna,52,20,197.854614304328,3.71912462509607,3.90631484776279,-128.0390889,-6.401954445,Li,Fe,O,0.148444228600002,,,
mp-761189,LiFeO3,Monoclinic,C2/m,12,10,96.4436516502653,3.81490101036675,3.89741773040173,-63.43500248,-6.343500248,Li,Fe,O,0.431858274100001,,,
mp-1185320,LiFeO3,Cubic,Pm-3m,221,5,53.8789194594435,3.41435006320982,3.41435133723645,-27.13778303,-5.427556606,Li,Fe,O,0.314812976100002,,,
mp-752790,LiFeO3,Monoclinic,C2/m,12,10,108.302206261333,3.39718826444088,3.52655593651861,-63.84556349,-6.384556349,Li,Fe,O,0.172300805100001,,,
mp-752521,LiFeO3,Monoclinic,C2/c,15,20,204.418767405075,3.59969868515039,3.71506683135074,-128.10514509,-6.4052572545,Li,Fe,O,0.147307044100002,,,
mp-28327,LiGaBr3,Monoclinic,P2_1/m,11,20,548.321490832187,3.83245753827603,3.62982140644873,-61.34800033,-3.0674000165,Li,Ga,Br,0,,,
mp-29344,LiGaCl3,Orthorhombic,Pnma,62,40,894.676159693,2.71755842194895,2.57942861268938,-137.64440483,-3.44111012075,Li,Ga,Cl,0,,,
mp-29345,LiGaI3,Monoclinic,P2_1/m,11,20,701.236723511627,4.33230623565728,4.18390331523675,-53.59835107,-2.6799175535,Li,Ga,I,0,,,
mp-1185401,LiGdO3,Cubic,Pm-3m,221,5,50.7973747923159,6.9363516825657,6.9363490430226,-39.76143439,-7.952286878,Li,Gd,O,0.353630916714286,,,
mp-1185303,LiGeO3,Cubic,Pm-3m,221,5,51.7810453387593,4.09127016072423,4.09127045741447,-27.65436548,-5.530873096,Li,Ge,O,0.353162639422223,,,
mp-973818,LiHoO3,Cubic,Pm-3m,221,5,49.1509704489806,7.42817332352717,7.42817052776136,-30.51102975,-6.10220595,Li,Ho,O,0.437087038089286,,,
mp-555562,LiIO3,Tetragonal,P4_2/n,86,40,674.129674681057,3.58338793724552,3.58338768435596,-179.02195324,-4.475548831,Li,I,O,0.148073749249999,,,
mp-22955,LiIO3,Hexagonal,P6_3,173,10,131.047417289717,4.60838564076932,4.30656189109695,-46.15379195,-4.615379195,Li,I,O,0.00901836049999982,,,
mp-1080052,LiIO3,Hexagonal,P6_3/mmc,194,10,99.6534535951193,6.0601716680235,6.05897443186611,-37.60908091,-3.760908091,Li,I,O,0.867518993499999,,,
mp-545343,LiIO3,Hexagonal,P6_322,182,10,114.01919138785,5.29662619728237,5.29662656432326,-43.76782756,-4.376782756,Li,I,O,0.250508861499999,,,
mp-23384,LiIO3,Tetragonal,P4_2/n,86,40,567.168717752546,4.25917027646313,3.89314781716011,-184.9842524,-4.62460631,Li,I,O,0,,,
mp-22994,LiIO3,Orthorhombic,Pna2_1,33,20,280.602850071686,4.30442553198268,3.97772033985687,-92.38871181,-4.6194355905,Li,I,O,0.00480738599999953,,,
mp-1180548,LiIO3,Orthorhombic,Cmcm,63,10,159.84612568357,3.77811494345096,3.77811478542385,-42.85244052,-4.285244052,Li,I,O,0.3390186065,,,