material_id,formula_pretty,crystal_system,space_group,number,nsites,volume,density,density,energy,energy_per_atom,A_site,B_site,X_site,energy_above_hull,k_voigt,k_reuss,k_vrh
mp-5735,BaTbO3,Orthorhombic,Imma,74,10,174.474207868477,6.55273342641514,6.55273421641723,-69.91016406,-6.991016406,Ba,Tb,O,0.0917668097500082,,,
mp-2929,BaTbO3,Cubic,Pm-3m,221,5,88.2184108568029,6.47984339574458,6.51587752247694,-34.77456857,-6.954913714,Ba,Tb,O,0.120442663750008,,,
mp-2939,BaTbO3,Tetragonal,I4/mcm,140,10,173.929780741305,6.57324449599313,6.57324480083313,-69.86376246,-6.986376246,Ba,Tb,O,0.0973972847500075,,,
mp-1182811,BaTbO3,Triclinic,P-1,2,10,176.350188752624,6.48302665301264,6.4830272279139,-69.35678613,-6.935678613,Ba,Tb,O,0.106176998750009,,,
mp-555174,BaTcO3,Hexagonal,P6_3/mmc,194,30,406.284218779469,6.94793262557358,6.7611470027934,-224.60339897,-7.48677996566667,Ba,Tc,O,0,,,
mp-1189614,BaThO3,Orthorhombic,Pnma,62,20,367.763128341038,7.53798241079621,7.43052937371224,-163.95185071,-8.1975925355,Ba,Th,O,0,,,
mp-8037,BaThO3,Cubic,Pm-3m,221,5,97.3433003825065,7.11962708753689,7.1196249305164,-40.57094862,-8.114189724,Ba,Th,O,0.0834060900000004,,,
mp-558125,BaTiO3,Orthorhombic,C222_1,20,30,402.919427981081,5.76628573211291,5.6158246720002,-240.23851621,-8.00795054033333,Ba,Ti,O,0.00330519799999962,,,
mp-5933,BaTiO3,Hexagonal,P6_3/mmc,194,30,400.236753508145,5.8049355247709,5.68150933419111,-240.09389065,-8.00312968833333,Ba,Ti,O,0.00840294566666522,139.978278688381,139.691262143682,139.834770416032
mp-1076932,BaTiO3,Orthorhombic,Amm2,38,5,125.856288300953,3.07672157946094,3.07672232710474,-35.13095492,-7.026190984,Ba,Ti,O,0.979015368000001,,,
mp-2998,BaTiO3,Cubic,Pm-3m,221,10,128.738833485449,6.01566361357729,5.8917486383211,-39.98498769,-7.996997538,Ba,Ti,O,0.0147385900000003,163.211279509245,163.211279509245,163.211279509245
mp-5020,BaTiO3,Trigonal,R3m,160,5,65.6356490658401,5.89961040436988,5.71357618647438,-40.05551111,-8.011102222,Ba,Ti,O,0,95.7814089981354,94.3764456233537,95.0789273107445
mp-19990,BaTiO3,Tetragonal,P4/mmm,123,5,85.1642248912565,4.54680070911038,4.54680168550407,-30.9626211,-6.19252422,Ba,Ti,O,1.807418874,96.9763614931918,94.138738588833,95.5575500410124
mp-5986,BaTiO3,Tetragonal,P4mm,99,5,65.3270996925463,5.92747512056749,5.73532213485692,-40.04097418,-8.008194836,Ba,Ti,O,0.00320737600000065,124.483117244396,83.9574804473648,104.220298845881
mp-995191,BaTiO3,Orthorhombic,Amm2,38,5,85.4583240372247,4.53115319647188,4.53115207512561,-30.97683438,-6.195366876,Ba,Ti,O,1.806614552,33.1136672381218,13.0831350482382,23.09840114318
mp-644497,BaTiO3,Orthorhombic,Amm2,38,5,111.543408459469,3.47151627760329,3.60565720487417,-36.37527456,-7.275054912,Ba,Ti,O,0.714231608,33.1164300997613,13.0603857579134,23.0884079288374
mp-5777,BaTiO3,Orthorhombic,Amm2,38,5,65.5731074167134,5.90523727456759,5.71337633980142,-40.05339267,-8.010678534,Ba,Ti,O,0.000473180000000184,106.931454325917,87.6188733881773,97.2751638570471
mp-504715,BaTiO3,Cubic,Pm-3m,221,5,100.489173484674,3.85339778106005,3.8533983160978,-24.85490782,-4.970981564,Ba,Ti,O,3.077451098,,,
mp-7073,BaTiS3,Hexagonal,P6_3/mmc,194,10,234.631345083203,3.98290711964177,3.98346038146212,-60.89999763,-6.089999763,Ba,Ti,S,0.00623059700000006,44.8519214922845,44.320803105836,44.5863622990603
mp-1079893,BaTiSe3,Hexagonal,P6_3/mmc,194,10,264.789330760021,5.29379612074572,5.25868477065092,-55.43034012,-5.543034012,Ba,Ti,Se,0,,,
mp-1183393,BaTlO3,Cubic,Pm-3m,221,5,82.3266134992744,7.86047380464386,7.8604724319635,-25.58096972,-5.116193944,Ba,Tl,O,0.119237046250004,,,
mp-1183394,BaTmO3,Cubic,Pm-3m,221,5,83.6901150804028,7.02904506046517,7.02904326056043,-35.1623743,-7.03247486,Ba,Tm,O,0.0724718132500035,,,
mp-1183212,BAuO3,Cubic,Pm-3m,221,5,42.752738896524,9.93446660206113,9.9344678066607,-24.1323269,-4.82646538,B,Au,O,1.32722323366667,,,
mp-35730,BaUO3,Orthorhombic,Pnma,62,20,344.116206577998,8.17161209175809,8.08596795798253,-173.29786663,-8.6648933315,Ba,U,O,0,,,
mp-3601,BaUS3,Orthorhombic,Pnma,62,20,571.398791001181,5.48148662739584,5.53689379034807,-136.72242107,-6.8361210535,Ba,U,S,0,,,
mp-19150,BaVO3,Trigonal,P-3m1,164,25,339.453387398875,5.77885064710895,5.77885127142995,-181.09417987,-7.2437671948,Ba,V,O,0.0751386589999843,,,
mp-1017465,BaVO3,Cubic,Pm-3m,221,5,63.1629559295319,6.2113952666238,6.21139661762509,-35.78307303,-7.156614606,Ba,V,O,0.114915918999984,,,
mp-555857,BaVS3,Orthorhombic,C222_1,20,10,225.711132737834,4.18555123127597,4.20732478668558,-60.45808478,-6.045808478,Ba,V,S,0.00378916499998905,,,
mp-3451,BaVS3,Orthorhombic,Cmc2_1,36,20,470.982303354036,4.01172401941986,4.19367678975094,-60.49282873,-6.049282873,Ba,V,S,0,,,
mp-4227,BaVS3,Hexagonal,P6_3/mmc,194,10,226.60022021534,4.16912882364262,4.1832961344649,-60.35387093,-6.035387093,Ba,V,S,0.0142068999999889,46.7451865055397,46.3376123322818,46.5413994189107
mp-542818,BaVS3,Monoclinic,Cm,8,20,449.913082470981,4.19959119372561,4.19959137920197,-120.97616815,-6.0488084075,Ba,V,S,0.00132853149998891,,,
mp-27363,BaVSe3,Hexagonal,P6_3/mmc,194,10,257.494213076685,5.48342958795849,5.48342959603296,-54.94512072,-5.494512072,Ba,V,Se,0.0377315030000016,152.779364156589,155.710436132968,154.244900144778
mp-676597,BaVSe3,Orthorhombic,Cmc2_1,36,10,254.621798016679,5.54528872905174,5.54528824406157,-55.08343108,-5.508343108,Ba,V,Se,0.0226695530000018,,,
mp-989622,BaWN3,Monoclinic,P2_1/c,14,20,340.15347524074,7.0919324591152,6.93779070992906,-171.65602443,-8.5828012215,Ba,W,N,0,,,
mp-989636,BaWN3,Monoclinic,C2/m,12,10,173.677958951941,6.94488087808591,6.9448787905123,-85.7298824,-8.57298824,Ba,W,N,0.0100144745000073,,,
mp-1183395,BaWO3,Cubic,Pm-3m,221,5,72.2176824681592,8.48840914964946,8.48840821871865,-35.55985886,-7.111971772,Ba,W,O,0.158416016500002,,,
mp-1183406,BaYbO3,Cubic,Pm-3m,221,5,85.0571582093383,6.99622967940386,6.9962301400352,-28.53159314,-5.706318628,Ba,Yb,O,0.279323518000001,,,
mp-1183405,BaZnO3,Cubic,Pm-3m,221,5,69.678188907752,5.97538398972906,5.97538489596759,-25.17026088,-5.034052176,Ba,Zn,O,0.174294128,,,
mp-1019544,BaZrO3,Tetragonal,I4/mcm,140,10,149.381251018124,6.14830505578323,5.98331600457477,-82.88747245,-8.288747245,Ba,Zr,O,0.000175722999999905,143.321079559919,142.630497913863,142.975788736891
mp-3834,BaZrO3,Cubic,Pm-3m,221,5,74.7454632414152,6.1437942922873,5.95815524475325,-41.44524511,-8.289049022,Ba,Zr,O,0,148.867333554574,148.867333554574,148.867333554574
mp-540771,BaZrS3,Orthorhombic,Pnma,62,20,506.056694699232,4.26239530369285,4.22067043103071,-127.59848649,-6.3799243245,Ba,Zr,S,0,41.9409842518138,309.621494402762,175.781239327288
mp-1079300,BaZrSe3,Hexagonal,P6_3/mmc,194,10,294.589205870659,5.24707859558192,5.24710319437279,-57.73650811,-5.773650811,Ba,Zr,Se,0.0493146635000024,,,
mp-998427,BaZrSe3,Orthorhombic,Pnma,62,20,561.813347750439,5.50265572294674,5.44377170503173,-116.55103203,-5.8275516015,Ba,Zr,Se,0,,,
mp-998350,BaZrSe3,Triclinic,P1,1,5,148.686455367016,5.19796074497148,5.19796093547883,-28.75229574,-5.750459148,Ba,Zr,Se,0.0775039105000026,,,
mp-1183417,BeAgO3,Cubic,Pm-3m,221,5,45.43780109045,6.02554085114289,6.02554019738652,-23.23882793,-4.647765586,Be,Ag,O,0.650462044166666,,,
mp-1183414,BeAuO3,Cubic,Pm-3m,221,5,45.5369645715654,9.26145721655764,9.26145504524615,-22.91934272,-4.583868544,Be,Au,O,0.841851829125,,,
mp-1183403,BeBiO3,Cubic,Pm-3m,221,5,49.5845270088637,8.90778054185186,8.90778294507167,-28.56508023,-5.713016046,Be,Bi,O,0.485461609000001,,,
mp-1183422,BeBO3,Cubic,Pm-3m,221,5,34.7991429516088,3.23628816141851,3.2362869200557,-28.20073194,-5.640146388,Be,B,O,1.63944421879168,,,
mp-1183418,BeCdO3,Cubic,Pm-3m,221,5,47.2478671925015,5.95436027582238,5.95436161337685,-23.78944205,-4.75788841,Be,Cd,O,0.515953689249999,,,
mp-1183426,BeCuO3,Cubic,Pm-3m,221,5,41.4876027102065,4.8252627040729,4.82526438302411,-24.72281158,-4.944562316,Be,Cu,O,0.83531941975,,,
mp-984722,BeGaO3,Cubic,Pm-3m,221,5,41.5124151306513,5.06946491046135,5.0694662347862,-25.98068289,-5.196136578,Be,Ga,O,1.08462968279167,,,
mp-1183415,BeGeO3,Cubic,Pm-3m,221,5,43.0548849884988,5.00035070046346,5.00034873714737,-27.07768587,-5.415537174,Be,Ge,O,1.32167316,,,
mp-1183436,BeInO3,Cubic,Pm-3m,221,5,44.9867056881532,6.34249022454663,6.34249236994338,-26.90471192,-5.380942384,Be,In,O,0.710247378125001,,,
mp-1183431,BeOsO3,Cubic,Pm-3m,221,5,40.6182229529416,10.1075892371696,10.1075908395009,-31.47141479,-6.294282958,Be,Os,O,1.301001645,,,
mp-1183499,BePbO3,Cubic,Pm-3m,221,5,48.7283529039865,9.00362181288539,9.00362248211937,-27.1932246,-5.43864492,Be,Pb,O,0.628855201999999,,,
mp-1183447,BePdO3,Cubic,Pm-3m,221,5,42.8180994399938,6.33803315723255,6.33803495795645,-25.94269644,-5.188539288,Be,Pd,O,0.827586935999999,,,
mp-1183451,BePtO3,Cubic,Pm-3m,221,5,42.9737494662193,9.74112277799837,9.74112295568169,-26.16206784,-5.232413568,Be,Pt,O,1.081286179,,,
mp-1183476,BeReO3,Cubic,Pm-3m,221,5,41.2213322474568,9.79764462882183,9.79764540784377,-34.00163355,-6.80032671,Be,Re,O,1.37089548733333,,,
mp-1183443,BeSbO3,Cubic,Pm-3m,221,5,45.7817032660536,6.48414502048723,6.48414540600549,-28.27227777,-5.654455554,Be,Sb,O,0.817968686750003,,,
mp-1183445,BeSiO3,Cubic,Pm-3m,221,5,42.0493661151389,3.36045580522818,3.36045609929189,-31.74459527,-6.348919054,Be,Si,O,1.24400333583333,,,
mp-1183449,BeVO3,Cubic,Pm-3m,221,5,40.316453089377,4.44628194292285,4.4462828442161,-32.41649315,-6.48329863,Be,V,O,1.019277878,,,
mp-984552,BeZnO3,Cubic,Pm-3m,221,5,42.9918239452842,4.72839130013992,4.72839154833492,-23.74689176,-4.749378352,Be,Zn,O,0.764859325250001,,,
mp-31250,BiBO3,Monoclinic,P2_1/c,14,20,259.341690659726,6.85852076151738,6.56582217881089,-139.18885306,-6.959442653,Bi,B,O,0,,,
mp-1178485,BiCO3,Triclinic,P-1,2,20,310.150749178246,5.76064694128061,5.76064656284757,-135.80326564,-6.790163282,Bi,C,O,0.079999967375004,,,
mp-1183479,BiMoO3,Cubic,Pm-3m,221,5,69.7633621890219,8.40032796931337,8.40033034466412,-31.34023192,-6.268046384,Bi,Mo,O,0.350626583,,,
mp-1183469,BiPtO3,Cubic,Pm-3m,221,5,67.4542832564097,11.1285387911588,11.128540007135,-26.53274027,-5.306548054,Bi,Pt,O,0.548429729125002,,,
mp-573119,BiRhO3,Orthorhombic,Pnma,62,20,251.648518033794,9.49898870325045,9.49898782227291,-123.02951195,-6.1514755975,Bi,Rh,O,0.061984177374999,175.742146592454,171.55418914274,173.648167867597
mp-1183221,BIrO3,Cubic,Pm-3m,221,5,39.8496640439499,10.4602842167105,10.4602879078326,-29.75990773,-5.951981546,B,Ir,O,1.67292217891667,,,
mp-755382,BiSbO3,Trigonal,R-3,148,10,166.762673351286,7.54257806846969,7.54555738557243,-57.77516309,-5.777516309,Bi,Sb,O,0.0861619617142821,,,
mp-1227486,BiSbS3,Orthorhombic,Pnma,62,20,527.799868152903,5.37281612513869,5.37281605379418,-87.55486969,-4.3777434845,Bi,Sb,S,0.0023040867500006,,,
mp-1227508,BiSbSe3,Orthorhombic,Pnma,62,20,594.385024923737,6.34306592310298,6.34306524747076,-80.12698215,-4.0063491075,Bi,Sb,Se,0.0150285884999999,,,
mp-1246423,BMoN3,Triclinic,P-1,2,20,309.516073443557,3.19259960599242,3.19259942273758,-174.36406651,-8.7182033255,B,Mo,N,0.378515961733333,,,
mp-984553,BOsO3,Cubic,Pm-3m,221,5,39.5618527522755,10.4529816463417,10.4529828593672,-31.80621636,-6.361243272,B,Os,O,1.77912292566666,,,
mp-984554,BPbO3,Cubic,Pm-3m,221,5,45.34560992453,9.74115618711883,9.74115209743766,-28.49506229,-5.699012458,B,Pb,O,1.07954392142856,,,
mp-1183242,BPdO3,Cubic,Pm-3m,221,5,40.3079528859797,6.80683393471214,6.80683495726601,-27.41533298,-5.483066596,B,Pd,O,1.21870172366667,,,
mp-1183277,BPtO3,Cubic,Pm-3m,221,5,40.9645807175293,10.2918074580385,10.2918028148742,-27.11156448,-5.422312896,B,Pt,O,1.50704076016667,,,
mp-755829,BSbO3,Monoclinic,C2/c,15,20,313.276623536005,3.82846581325271,3.8284658405712,-138.88690801,-6.9443454005,B,Sb,O,0.047189438666666,,,
mp-753806,BSbO3,Triclinic,P-1,2,10,155.727277064721,3.85086307904932,3.85086371766832,-69.42901012,-6.942901012,B,Sb,O,0.0480148381666661,,,
mp-1183211,BSbO3,Cubic,Pm-3m,221,5,43.6404189449344,6.8707454711434,6.87074659054283,-29.88295901,-5.976591802,B,Sb,O,1.01431307716667,,,
mp-984632,CaBeO3,Cubic,Pm-3m,221,5,47.2380266366913,3.41290825850799,3.41290767513659,-29.67974405,-5.93594881,Ca,Be,O,0.333611442999999,,,
mp-1378965,CaBiO3,Orthorhombic,Pnma,62,20,289.410618627779,6.81763636220669,6.6120202276812,-119.68224201,-5.9841121005,Ca,Bi,O,0.0158106115000001,,,
mp-755893,CaBiO3,Monoclinic,P2_1/c,14,20,289.03722806819,6.82644367423833,6.65755857802265,-119.98221179,-5.9991105895,Ca,Bi,O,0,,,
mp-1178493,CaBiO3,Orthorhombic,Pnma,62,20,307.535345706327,6.41583604848347,6.41583554149267,-117.98541717,-5.8992708585,Ca,Bi,O,0.0995510239999993,,,
mp-867749,CaBiO3,Trigonal,R-3,148,10,156.564599923326,6.30122121517813,6.30135875455761,-59.78373011,-5.978373011,Ca,Bi,O,0.0208404194999998,,,
mp-1189809,CaBO3,Monoclinic,P2_1/c,14,20,265.847359308952,2.47068181099903,2.47068166313325,-142.13932475,-7.1069662375,Ca,B,O,0.102489062625001,,,
mp-1084760,CaBO3,Monoclinic,P2_1/m,11,10,133.295446972057,2.46379096235914,2.46379073615561,-71.08748315,-7.108748315,Ca,B,O,0.100792408625002,,,
mp-984628,CaBO3,Cubic,Pm-3m,221,5,42.1325670850232,3.8973665776244,3.89736614558107,-31.55892553,-6.311785106,Ca,B,O,0.897433745625001,,,
mp-756365,CaCeO3,Orthorhombic,Pnma,62,20,301.408377809396,5.0286865354887,5.02868695309756,-155.27409101,-7.7637045505,Ca,Ce,O,0.0590747670000038,,,
mp-1079918,CaCO3,Triclinic,P-1,2,10,120.153815472938,2.76642413477615,2.66226925504948,-74.72431915,-7.472431915,Ca,C,O,0.0162160140000012,,,
mp-641635,CaCO3,Orthorhombic,Pnma,62,20,306.457839599362,2.16927989471128,2.16928003165968,-122.39479028,-6.119739514,Ca,C,O,1.3777728225,,,
mp-553939,CaCO3,Orthorhombic,Pnma,62,20,248.793935647125,2.67206203515529,2.57446188574785,-149.50004242,-7.475002121,Ca,C,O,0.0135683069999999,74.8727267071402,67.8936053479003,71.3831660275202
mp-556235,CaCO3,Monoclinic,P2_1/c,14,20,244.95879367681,2.71389657028052,2.62695603849563,-149.73142959,-7.4865714795,Ca,C,O,0.00192542200000112,78.4527109028957,72.0414597173152,75.2470853101054
mp-4626,CaCO3,Orthorhombic,Pnma,62,20,234.243831731341,2.83803771952473,2.83803789813839,-149.2861075,-7.464305375,Ca,C,O,0.0243540495000003,70.3199483843683,67.0011067467503,68.6605275655593
mp-560265,CaCO3,Hexagonal,P6_522,179,90,1174.59099522357,2.54690164257438,2.54690198972492,-673.23932652,-7.48043696133333,Ca,C,O,0.00806831500000094,,,
mp-1197230,CaCO3,Triclinic,P-1,2,50,590.851968969494,2.81285696305208,2.80748416216278,-373.20963445,-7.464192689,Ca,C,O,0.0243982078000009,,,
mp-3205,CaCO3,Orthorhombic,Pmmn,59,10,110.769826894637,3.00078481955151,3.00184273372076,-73.1864803,-7.31864803,Ca,C,O,0.168865474,81.3335389823518,50.7817809346821,66.0576599585169
mp-1194399,CaCO3,Monoclinic,C2/c,15,30,376.260749887641,2.65026114290982,2.56139279306698,-224.40006374,-7.48000212466667,Ca,C,O,0.00860506666666616,,,
mp-1197939,CaCO3,Triclinic,P-1,2,90,1170.31828056961,2.55620012500527,2.55620016502758,-673.14284861,-7.47936498455556,Ca,C,O,0.00815612200000082,,,
mp-561412,CaCO3,Monoclinic,C2,5,15,191.627928000717,2.60188912814836,2.60188960109013,-112.218405,-7.481227,Ca,C,O,0.00719741933333395,77.1574701543555,72.8638181879537,75.0106441711546
mp-1188902,CaCO3,Triclinic,P-1,2,20,233.296063110513,2.8495672886886,2.75836103874012,-149.37455166,-7.468727583,Ca,C,O,0.0199184540000008,,,
mp-548403,CaCO3,Orthorhombic,C222_1,20,10,104.748995970401,3.1732658812663,3.16182692944796,-71.76396383,-7.176396383,Ca,C,O,0.309852612,74.5711232571235,71.3797434195275,72.9754333383255
mp-3953,CaCO3,Trigonal,R-3c,167,10,122.949507220852,2.703519701081,2.61379042508335,-74.885861,-7.4885861,Ca,C,O,0,78.7855845869356,72.9466660325536,75.8661253097445
mp-2717324,CaCO3,Trigonal,P321,150,15,185.503002407462,2.68779812749062,2.61012783941251,-112.35038841,-7.490025894,Ca,C,O,0.00141167200000059,,,
mp-696740,CaCO3,Monoclinic,C2/c,15,10,118.88023144734,2.79606130441472,2.79606097897214,-58.04604148,-5.804604148,Ca,C,O,1.87270678,,,
mp-1099934,CaCoO3,Cubic,Pm-3m,221,5,53.3055341060366,4.57954033570196,4.57954000680778,-29.67708158,-5.935416316,Ca,Co,O,0.16033285666667,,,
mp-1368304,CaCoO3,Orthorhombic,Pnma,62,20,214.852583269424,4.54478768353671,4.54478768353671,-120.65544124,-6.032772062,Ca,Co,O,0.0651812466666684,,,
mp-1399298,CaCoO3,Monoclinic,Cm,8,5,97.8044273649628,2.49594880448307,2.49594880448307,-28.07567442,-5.615134884,Ca,Co,O,0.48311875266667,,,
mp-20772,CaCrO3,Orthorhombic,Pnma,62,20,220.317395248473,4.22291714253783,4.327934327938,-153.8110871,-7.690554355,Ca,Cr,O,0.0557747038333369,,,
mp-1099873,CaCuO3,Cubic,Pm-3m,221,5,55.0296622817241,4.57525225531786,4.57525275940156,-27.35232801,-5.470465602,Ca,Cu,O,0.162475193375001,,,
mp-19115,CaFeO3,Orthorhombic,Pnma,62,20,210.959582451756,4.53142298319831,4.26681655268205,-128.52505311,-6.4262526555,Ca,Fe,O,0,,,
mp-1272846,CaFeO3,Monoclinic,P2_1/c,14,20,226.630273051485,4.21809093540932,4.21809093540931,-128.08295476,-6.404147738,Ca,Fe,O,0.00462041699999993,,,
mp-1278982,CaFeO3,Orthorhombic,Pmma,51,20,227.342958506541,4.20486786451449,4.20486812697946,-126.91838715,-6.3459193575,Ca,Fe,O,0.0528907215000007,,,
mp-1001571,CaFeO3,Cubic,Pm-3m,221,5,56.4732735980338,4.23185623721789,4.23667967427661,-31.8692172,-6.37384344,Ca,Fe,O,0.0521472515000001,,,
mp-554549,CaGeO3,Tetragonal,I4_1/a,88,80,969.450878591964,4.40456402078852,4.24555648803496,-529.34093075,-6.616761634375,Ca,Ge,O,0.0144064817083285,,,
mp-1016884,CaGeO3,Cubic,Pm-3m,221,5,54.1490255087543,4.92853797881096,4.92853672740404,-32.30259544,-6.460519088,Ca,Ge,O,0.170772001333328,,,
mp-776074,CaGeO3,Monoclinic,C2/c,15,30,438.538404477796,3.65134080861114,3.65134078957676,-198.04363813,-6.60145460433333,Ca,Ge,O,0.0300714289999942,,,
mp-776086,CaGeO3,Triclinic,P-1,2,30,418.571125695967,3.82552229265828,3.82552246681892,-198.31681797,-6.610560599,Ca,Ge,O,0.0209115276666605,,,
mp-17761,CaGeO3,Triclinic,P-1,2,30,436.38233200714,3.66938130846873,3.55702888694286,-198.94282547,-6.63142751566667,Ca,Ge,O,0,,,
mp-8130,CaGeO3,Orthorhombic,Pnma,62,20,216.427208871793,4.9323840588563,4.93238463262487,-130.47432824,-6.523716412,Ca,Ge,O,0.107375905833328,,,
mp-1207169,CaPdH3,Cubic,Pm-3m,221,5,50.9293349162587,4.87512400912721,4.79566029951178,-19.93791835,-3.98758367,Ca,Pd,H,0,,,
mp-754853,CaHfO3,Orthorhombic,Pnma,62,20,252.291338193951,7.0179752044412,6.86069374633934,-175.40060929,-8.7700304645,Ca,Hf,O,0,,,
mp-1016873,CaHfO3,Cubic,Pm-3m,221,5,69.1783613891477,6.39858447130764,6.3985841350055,-43.07828513,-8.615657026,Ca,Hf,O,0.154316738,,,
mp-1190098,CaHfS3,Orthorhombic,Pnma,62,20,441.89303647343,4.73124684101369,4.73124717892963,-132.81738168,-6.640869084,Ca,Hf,S,0.037140437999998,,,
mp-1183539,CaHoO3,Cubic,Pm-3m,221,5,80.1370209878832,5.24261078569464,5.24261015451011,-33.88716058,-6.777432116,Ca,Ho,O,0.441341794875001,,,
mp-28534,CaInBr3,Orthorhombic,Cmcm,63,10,327.873726444337,3.99703878135619,3.8629472051694,-34.3936777,-3.43936777,Ca,In,Br,0,,,
mp-1206105,CaInI3,Orthorhombic,Cmcm,63,10,409.790129690566,4.34076023458723,4.34076083043484,-30.1623137,-3.01623137,Ca,In,I,0.021310371999999,,,
mp-1183543,CaInO3,Cubic,Pm-3m,221,5,72.1346294709726,4.67062419197883,4.67062401618041,-27.44661604,-5.489323208,Ca,In,O,0.3578972495,,,
mp-1016872,CaIrO3,Cubic,Pm-3m,221,5,61.7926742006191,7.53224900400352,7.5322510552991,-32.54361193,-6.508722386,Ca,Ir,O,0.306552834000004,,,
mp-1079054,CaIrO3,Orthorhombic,Cmcm,63,10,128.735449156812,7.23091909417089,7.2309210736713,-64.9082388,-6.49082388,Ca,Ir,O,0.323336272000004,,,
mp-20198,CaIrO3,Orthorhombic,Cmcm,63,10,113.082041383161,8.23186074480673,8.23185728704805,-61.62617005,-6.162617005,Ca,Ir,O,0.653947459000004,,,
mp-555735,CaIrO3,Orthorhombic,Pnma,62,20,228.690007348756,8.14093827882086,7.89381727770532,-135.92935727,-6.7964678635,Ca,Ir,O,0.0244952190000047,,,
mp-4243,CaIrO3,Orthorhombic,Cmcm,63,10,114.218721867935,8.14993901333421,7.95702686906938,-68.2239054,-6.82239054,Ca,Ir,O,0,,,
mp-1183562,CaLaO3,Cubic,Pm-3m,221,5,91.4124061290816,4.12320325432502,4.12320247433718,-33.09168297,-6.618336594,Ca,La,O,0.592782736625,,,