material_id,formula_pretty,crystal_system,space_group,number,nsites,volume,density,density,energy,energy_per_atom,A_site,B_site,X_site,energy_above_hull,k_voigt,k_reuss,k_vrh
mp-1186316,NdInO3,Cubic,Pm-3m,221,5,71.7762633985968,7.10377097771635,7.1037730689719,-32.6245248,-6.52490496,Nd,In,O,0.42484623275,,,
mp-1209937,NdLuO3,Orthorhombic,Pnma,62,20,285.395599248483,8.54619906883572,8.54619822139964,-166.88751705,-8.3443758525,Nd,Lu,O,0.0226727263750011,,,
mp-1080801,NdLuS3,Orthorhombic,Cmcm,63,10,229.217217711292,6.01869769914691,5.96497678291269,-64.12271438,-6.412271438,Nd,Lu,S,0,,,
mp-1205870,NdLuS3,Orthorhombic,Cmcm,63,10,238.461832665743,5.7853666786903,5.79014476676109,-62.75159669,-6.275159669,Nd,Lu,S,0.137041507,,,
mp-13327,NdLuSe3,Orthorhombic,Cmcm,63,10,259.744591540948,7.11011924081549,7.00604411255768,-58.26586869,-5.826586869,Nd,Lu,Se,0,,,
mp-975521,NdMgO3,Cubic,Pm-3m,221,5,59.7215424018236,6.02097249708224,6.02097045977646,-33.34640863,-6.669281726,Nd,Mg,O,0.277954372999998,,,
mp-1232174,NdMgS3,Monoclinic,C2/m,12,20,554.58312045513,3.17077399116683,3.17077378500457,-99.51009485,-4.9755047425,Nd,Mg,S,0.387334055500009,,,
mp-1232282,NdMgSe3,Monoclinic,C2/m,12,10,299.529895463023,4.49522656904574,4.40976514656725,-89.47987634,-4.473993817,Nd,Mg,Se,0.380663731500001,,,
mp-1232357,NdMgSe3,Trigonal,R-3,148,30,842.409108515102,4.79501490676749,4.79501518133202,-137.22864193,-4.57428806433333,Nd,Mg,Se,0.285845350500001,,,
mp-1189476,NdMnO3,Monoclinic,P2_1/c,14,20,245.811781025598,6.67907991266509,6.67907968003896,-159.17952034,-7.958976017,Nd,Mn,O,0.0113423685000011,,,
mp-20852,NdMnO3,Orthorhombic,Pnma,62,20,235.656682748413,6.96689994018667,6.80077055108255,-167.00017073,-8.3500085365,Nd,Mn,O,0,,,
mp-1182197,NdMnO3,Monoclinic,P2_1/c,14,20,4031.4182952842,0.407250354264904,0.407250372660066,-80.41736365,-4.0208681825,Nd,Mn,O,3.9710545235,,,
mp-22106,NdNiO3,Orthorhombic,Pnma,62,20,220.613181883507,7.55503442478073,7.40421011453448,-143.95508684,-7.197754342,Nd,Ni,O,0,,,
mp-1186312,NdNpO3,Cubic,Pm-3m,221,5,90.8333472070788,7.84700930848941,7.84700761170945,-42.63173941,-8.526347882,Nd,Np,O,1.0371019793125,,,
mp-1186326,NdReO3,Cubic,Pm-3m,221,5,64.0361508045349,9.81361859434061,9.81361990890314,-41.04522096,-8.209044192,Nd,Re,O,0.607174259666667,,,
mp-4582,NdRhO3,Orthorhombic,Pnma,62,20,243.69214839188,8.04459180852845,7.81560759119503,-149.50084594,-7.475042297,Nd,Rh,O,0,,,
mp-1206341,NdSbO3,Cubic,Pm-3m,221,5,78.489338295132,6.64306274388036,6.64306487169327,-32.0569722,-6.41139444,Nd,Sb,O,0.768686312333338,,,
mp-31117,NdScO3,Orthorhombic,Pnma,62,20,260.340209819218,6.05167232053991,5.94875203243324,-173.46093039,-8.6730465195,Nd,Sc,O,0,,,
mp-1105614,NdScS3,Orthorhombic,Pnma,62,20,446.281726928609,4.24759564294279,4.22258674668492,-134.02606351,-6.7013031755,Nd,Sc,S,0,,,
mp-1186324,NdTaO3,Cubic,Pm-3m,221,5,66.5814544129667,9.30729722703025,9.3072969401563,-44.30010263,-8.860020526,Nd,Ta,O,0.437126958199992,,,
mp-3119,NdTiO3,Orthorhombic,Pnma,62,20,248.047757563818,6.42952614750988,6.4295250766504,-173.11329005,-8.6556645025,Nd,Ti,O,0.0420024694999963,,,
mp-1197152,NdTmS3,Monoclinic,P2_1/m,11,40,907.448818259353,5.9928615103626,5.92710206296389,-256.02838831,-6.40070970775,Nd,Tm,S,0.00356099108333208,,,
mp-541129,NdVO3,Orthorhombic,Pnma,62,20,238.607338961432,6.76949359378209,6.72099504911976,-172.13277685,-8.6066388425,Nd,V,O,0,,,
mp-19253,NdVO3,Cubic,Pm-3m,221,5,60.3921453281418,6.68651048804571,6.68651119898671,-39.82030422,-7.964060844,Nd,V,O,0.222997487500001,,,
mp-771131,NdZrO3,Monoclinic,C2/m,12,10,142.996140260708,6.58344172401212,6.57819157468909,-86.68616957,-8.668616957,Nd,Zr,O,0.199959562974989,,,
mp-756246,NdZrO3,Tetragonal,I-4m2,119,20,310.443176521491,6.06492155320323,6.06492129719867,-175.66285782,-8.783142891,Nd,Zr,O,0.0860204529749904,,,
mp-1101702,NdZrO3,Orthorhombic,Pbam,55,40,572.535057813586,6.57711169520416,6.57711207368437,-346.75848091,-8.66896202275,Nd,Zr,O,0.199909966974991,,,
mp-998365,NiAgF3,Cubic,Pm-3m,221,5,64.1899796712093,5.78322064980745,5.78330263826076,-19.33374867,-3.866749734,Ni,Ag,F,0.0517296580000037,,,
mp-1209766,NiAgF3,Cubic,Pm-3m,221,5,82.154028290048,4.51864410877863,4.51864250842171,-13.14927273,-2.629854546,Ni,Ag,F,0.984853386000004,,,
mp-998429,NiAgF3,Orthorhombic,Cmcm,63,10,127.184446730474,5.83758196050414,5.83758427528661,-38.94986764,-3.894986764,Ni,Ag,F,0.0254681560000032,,,
mp-976763,NiAsO3,Cubic,Pm-3m,221,5,50.5042670633027,5.97129373706661,5.97129252675559,-22.59620689,-4.519241378,Ni,As,O,1.009245787,,,
mp-998363,NiBiO3,Monoclinic,Cm,8,5,59.3946657027892,8.82546743936197,8.82622365821461,-25.43720404,-5.087440808,Ni,Bi,O,0.138744354250008,,,
mp-25096,NiBiO3,Monoclinic,P2_1/m,11,20,239.41795799438,8.75766701249801,8.74068259301106,-105.45590452,-5.272795226,Ni,Bi,O,0.032242590750009,,,
mp-998527,NiBiO3,Trigonal,R3,146,10,113.530381555516,9.23428039348977,8.17452286930725,-52.85146739,-5.285146739,Ni,Bi,O,0.0109813922500086,124.508445688084,119.15302374856,121.830734718322
mp-1105718,NiBiO3,Triclinic,P-1,2,20,244.840432374043,8.56371119996971,8.56371052607314,-105.65092426,-5.282546213,Ni,Bi,O,0.020718875250008,,,
mp-19147,NiCO3,Trigonal,R-3c,167,10,88.9450530123242,4.43217019428751,4.23409963972314,-66.54477647,-6.654477647,Ni,C,O,0,129.538760066382,120.071676767386,124.805218416884
mp-1246271,NiMoN3,Triclinic,P-1,2,20,372.199824904186,3.50941400273561,3.50941402730559,-160.17212964,-8.008606482,Ni,Mo,N,0.336337984399998,,,
mp-977100,NiMoO3,Cubic,Pm-3m,221,5,60.5890802023511,5.55343779446594,5.55384912165495,-28.94990156,-5.789980312,Ni,Mo,O,0.93629262,,,
mp-974108,NiPbO3,Cubic,Pm-3m,221,5,55.3304702664199,9.42029341098723,9.42029385777468,-23.68000314,-4.736000628,Ni,Pb,O,0.36695847,,,
mp-1078668,NiPbO3,Trigonal,R3c,161,10,117.632802807569,8.86197135556213,8.47650703517555,-51.79911402,-5.179911402,Ni,Pb,O,0,,,
mp-1186345,NiPdO3,Cubic,Pm-3m,221,5,50.2469220356744,7.04282218708609,7.04282339118781,-21.16507276,-4.233014552,Ni,Pd,O,0.780930656000001,,,
mp-676040,NiPS3,Monoclinic,C2/m,12,10,194.287941195275,3.17705133015475,3.17705143635277,-49.16665945,-4.916665945,Ni,P,S,0.0513324997800018,,,
mp-1079754,NiPSe3,Monoclinic,C2/m,12,10,217.808253236111,4.97909800507467,4.97909817718001,-44.51673377,-4.451673377,Ni,P,Se,0.0537216489999999,,,
mp-1186112,NiPtO3,Cubic,Pm-3m,221,5,61.8379339936884,8.10360470965608,8.10360617825427,-21.03633856,-4.207267712,Ni,Pt,O,1.24240356699999,,,
mp-976848,NiRuO3,Cubic,Pm-3m,221,5,51.3811001219362,6.71445828369939,6.71445564770827,-25.46383972,-5.092767944,Ni,Ru,O,1.200749332,,,
mp-1186113,NiSbO3,Cubic,Pm-3m,221,5,54.9485820396117,6.90377790556645,6.90377594271789,-24.75734049,-4.951468098,Ni,Sb,O,0.662873084875006,,,
mp-572987,NiSeO3,Monoclinic,C2/c,15,80,1093.20875418908,4.51195412982912,4.59923663570475,-443.27441964,-5.5409302455,Ni,Se,O,0.0659637803750002,,,
mp-20460,NiSeO3,Orthorhombic,Pnma,62,20,217.561366854781,5.66794994963549,5.50778612461947,-110.13770407,-5.5068852035,Ni,Se,O,0,,,
mp-754654,NiSnO3,Trigonal,R-3,148,20,231.066817646801,6.47930613812784,6.53222455722518,-60.86813955,-6.086813955,Ni,Sn,O,0.0261790260000003,157.60902703298,154.020527368357,155.814777200668
mp-1186110,NpAlO3,Cubic,Pm-3m,221,5,53.4060047447393,9.70030516997223,9.70030261903592,-45.71327292,-9.142654584,Np,Al,O,0.0427647980624979,,,
mp-973930,NpBeO3,Cubic,Pm-3m,221,5,45.4906142749639,10.7322297814229,10.7322284370015,-44.18671771,-8.837343542,Np,Be,O,0.432417750999999,,,
mp-977058,NpBO3,Cubic,Pm-3m,221,5,45.7006272926661,10.7482711279659,10.7482709257537,-43.50674838,-8.701349676,Np,B,O,0.843248484979165,,,
mp-1186334,NpMoO3,Cubic,Pm-3m,221,5,65.2511698468024,9.69427467040703,9.69427314256803,-42.64077128,-8.528154256,Np,Mo,O,0.6744095275,,,
mp-973919,NpOsO3,Cubic,Pm-3m,221,5,63.2081682452768,12.484699581671,12.484695265797,-45.00179682,-9.000359364,Np,Os,O,0.973443295999997,,,
mp-1186329,NpRuO3,Cubic,Pm-3m,221,5,62.2178585641911,10.3038153878364,10.3038181871432,-44.10060134,-8.820120268,Np,Ru,O,0.77178260825,,,
mp-1186349,NpSiO3,Cubic,Pm-3m,221,5,54.1322382330312,9.60403138565295,9.60403024166043,-43.6576937,-8.73153874,Np,Si,O,0.615645919000006,,,
mp-1186346,NpSnO3,Cubic,Pm-3m,221,5,71.9621226999556,9.31564012365049,9.31563789156018,-39.55839487,-7.911678974,Np,Sn,O,0.820941680999999,,,
mp-1186357,NpTaO3,Cubic,Pm-3m,221,5,65.8644740796145,11.7471775123245,11.7471747062125,-50.95963363,-10.191926726,Np,Ta,O,0.413099266200002,,,
mp-977184,NpTcO3,Cubic,Pm-3m,221,5,62.7944023658778,10.1280281295116,10.1280307511506,-46.17896187,-9.235792374,Np,Tc,O,0.684869141750005,,,
mp-977152,NpTiO3,Cubic,Pm-3m,221,5,60.1596575488923,9.18781274747797,9.18781013823409,-49.22941277,-9.845882554,Np,Ti,O,0.17949956,,,
mp-680932,OsPbO3,Cubic,Fd-3m,227,20,276.169264911969,10.7130085992891,10.4635402685537,-138.87583054,-6.943791527,Os,Pb,O,0,159.707936255626,159.707936255626,159.707936255626
mp-977455,PaAgO3,Cubic,Pm-3m,221,5,80.3403192562356,7.99681102644793,7.82328728735795,-39.31707337,-7.863414674,Pa,Ag,O,0,,,
mp-1186392,PaBeO3,Cubic,Pm-3m,221,5,46.9555091858898,10.1864952447972,10.1864971992858,-42.07819657,-8.415639314,Pa,Be,O,0.452009925000001,,,
mp-973877,PaBO3,Cubic,Pm-3m,221,5,47.4157195086031,10.1506226962237,10.1506258148971,-40.16478615,-8.03295723,Pa,B,O,1.12695234297917,,,
mp-1186400,PaCoO3,Cubic,Pm-3m,221,5,54.1024933511181,10.3730499022971,10.3730499829691,-39.2709569,-7.85419138,Pa,Co,O,0.630228623499997,,,
mp-1186404,PaOsO3,Cubic,Pm-3m,221,5,62.1260495127331,12.5427472614752,12.5427458254622,-41.80047737,-8.360095474,Pa,Os,O,1.164462956,,,
mp-1186401,PaSiO3,Cubic,Pm-3m,221,5,55.7825519548341,9.14235801045292,9.1423564283699,-39.69243903,-7.938487806,Pa,Si,O,1.001981955,,,
mp-1186403,PaTaO3,Cubic,Pm-3m,221,5,65.8339478694144,11.6021906513387,11.6021870174533,-47.26675865,-9.45335173,Pa,Ta,O,0.731835164200001,,,
mp-862832,PaTlO3,Cubic,Pm-3m,221,5,83.821643616806,9.57668461660267,9.38779316068846,-40.53070887,-8.106141774,Pa,Tl,O,0,,,
mp-982245,PbAuO3,Cubic,Pm-3m,221,5,71.4111853759739,10.5142809142793,10.5142812780545,-22.84858652,-4.569717304,Pb,Au,O,0.329485498333332,,,
mp-1105697,PbCO3,Monoclinic,P2_1/c,14,20,283.008259060071,6.27134796513526,6.27134779583717,-138.98535923,-6.9492679615,Pb,C,O,0.00196289350000001,,,
mp-19893,PbCO3,Orthorhombic,Pnma,62,20,268.751733019961,6.6040253941024,6.27176150635335,-139.02931137,-6.9514655685,Pb,C,O,0,59.0985638553479,52.5578719437018,55.8282178995249
mp-20716,PbSeO3,Monoclinic,P2_1/m,11,10,158.841814971155,6.98660797379455,6.64545854683673,-54.49744237,-5.449744237,Pb,Se,O,0,36.8106583205943,33.7748563671242,35.2927573438592
mp-630329,PbSeO3,Monoclinic,P2_1/c,14,40,638.570873741933,6.95155721429264,6.71918611424078,-217.87074348,-5.446768587,Pb,Se,O,0.00309356250000281,,,
mp-21190,PbSO3,Monoclinic,P2_1/m,11,10,154.013032693336,6.19443377816386,6.19443420138096,-58.37959952,-5.837959952,Pb,S,O,0.0423396515000052,,,
mp-20507,PbSO3,Orthorhombic,Pnma,62,20,309.875476002605,6.15746392260508,6.1574647237631,-116.78671327,-5.8393356635,Pb,S,O,0.0407883530000044,,,
mp-540785,PCF3,Tetragonal,P4_2/nmc,137,40,822.090886058271,1.61558925781226,1.61558928744752,-193.93621604,-4.848405401,P,C,F,1.16055220028334,,,
mp-556383,PCF3,Monoclinic,P2_1/c,14,100,1668.34803369612,1.99023401837603,1.99023390384141,-529.71598397,-5.2971598397,P,C,F,0.597496547733337,,,
mp-546684,PdSeO3,Monoclinic,C2/m,12,10,151.68456217721,5.10973052010448,4.73768887040903,-53.07820297,-5.307820297,Pd,Se,O,0.00968658299999703,,,
mp-545482,PdSeO3,Monoclinic,P2_1/m,11,10,154.684899519372,5.0106199066219,4.70219040876229,-53.17453344,-5.317453344,Pd,Se,O,0,18.3125918565097,17.0593231731491,17.6859575148294
mp-1186533,PmBeO3,Cubic,Pm-3m,221,5,48.1674361726104,6.96416828098762,6.96417081080763,-35.69905933,-7.139811866,Pm,Be,O,0.273343498875001,,,
mp-1186557,PmErO3,Cubic,Pm-3m,221,5,77.6550579628377,7.703569739272,7.70356967003906,-38.65327057,-7.730654114,Pm,Er,O,0.63507635675,,,
mp-1186571,PmEuO3,Cubic,Pm-3m,221,5,87.942844640839,6.51358518068989,6.51358485664215,-42.12688231,-8.425376462,Pm,Eu,O,0.661696754625002,,,
mp-1186597,PmInO3,Cubic,Pm-3m,221,5,71.2710296514437,7.17178954663811,7.1717906252995,-32.47136963,-6.494273926,Pm,In,O,0.479242334749999,,,
mp-1186600,PmMgO3,Cubic,Pm-3m,221,5,59.0915975069185,6.10645960036781,6.10645823265978,-33.27038589,-6.654077178,Pm,Mg,O,0.312340159875001,,,
mp-1232288,PmMgS3,Monoclinic,C2/m,12,10,273.009437440253,3.22972807325596,3.22230290208372,-99.62213293,-4.9811066465,Pm,Mg,S,0.3794969155,,,
mp-1232152,PmMgSe3,Monoclinic,C2/m,12,20,554.402413969246,4.86640060556689,4.86640043010844,-90.7902333,-4.539511665,Pm,Mg,Se,0.336197094,,,
mp-1232203,PmMgSe3,Trigonal,R-3,148,30,832.911233861545,4.85876069390877,4.85876061243236,-137.35211091,-4.578403697,Pm,Mg,Se,0.277245776833333,,,
mp-1237948,PmMgSe3,Monoclinic,C2/m,12,10,296.676481737976,4.54694660537754,4.54694683855619,-89.34414831,-4.4672074155,Pm,Mg,Se,0.3709155775,,,
mp-983513,PmRuO3,Cubic,Pm-3m,221,5,62.2787377362412,7.84074552719433,7.84074490717502,-37.71898506,-7.543797012,Pm,Ru,O,0.387848930499999,,,
mp-2647018,PmTiO3,Cubic,Pm-3m,221,5,60.2478569104586,6.63867720604334,6.63867720604334,-42.73039902,-8.546079804,Pm,Ti,O,0.109473932749999,,,
mp-1186669,PmWO3,Cubic,Pm-3m,221,5,70.306926413417,8.90032582576115,8.90032432462295,-37.44926878,-7.489853756,Pm,W,O,0.555546558499998,,,
mp-1195541,PPbO3,Orthorhombic,Cmc2_1,36,40,671.926489588882,5.65775846054019,5.65775897502432,-253.97349544,-6.349337386,P,Pb,O,0.310789518999997,,,
mp-20199,PPbS3,Monoclinic,P2_1/c,14,20,476.694252177276,4.65902317400038,4.53809102713168,-94.58162161,-4.7290810805,P,Pb,S,0,28.5157008083413,27.5882508559663,28.0519758321538
mp-20316,PPbSe3,Monoclinic,P2_1/c,14,20,535.998094170855,5.8869263836214,5.77106211613222,-84.71518268,-4.235759134,P,Pb,Se,0,,,
mp-8218,PrAlO3,Cubic,Pm-3m,221,10,106.224750059873,6.74964059796787,6.58390848199194,-79.02592142,-7.902592142,Pr,Al,O,0.0180234129999999,,,
mp-3466,PrAlO3,Trigonal,R-3c,167,10,107.09578105966,6.69474444669023,6.52162534100632,-79.20562991,-7.920562991,Pr,Al,O,0,,,
mp-1186742,PrBeO3,Cubic,Pm-3m,221,5,49.8526503716507,6.59244035513667,6.59244084063732,-35.58386943,-7.116773886,Pr,Be,O,0.25240653,,,
mp-976727,PrBiO3,Cubic,Pm-3m,221,5,88.0518740034873,7.5035956890799,7.50359703626036,-31.05211806,-6.210423612,Pr,Bi,O,0.765578476875,,,
mp-861504,PrBO3,Orthorhombic,Pnma,62,20,239.349510525528,5.54231560290441,5.41934622517543,-165.94106584,-8.297053292,Pr,B,O,0,,,
mp-862754,PrBS3,Orthorhombic,Pna2_1,33,20,415.001773710443,3.96788955659386,3.95287786758156,-120.50220458,-6.025110229,Pr,B,S,0,53.8740823296676,52.0774374680004,52.975759898834
mp-20090,PrCoO3,Orthorhombic,Pnma,62,20,219.468020673114,7.500799709937,7.22803454086552,-150.09990738,-7.504995369,Pr,Co,O,0,,,
mp-20427,PrCoO3,Cubic,Pm-3m,221,5,55.6912831091139,7.38978155064246,7.34809565065752,-37.24856115,-7.44971223,Pr,Co,O,0.116340928,,,
mp-1105822,PrCrO3,Orthorhombic,Pnma,62,20,234.031850929161,6.83713943391756,6.54831249654233,-162.95311327,-8.1476556635,Pr,Cr,O,0,,,
mp-19353,PrCrO3,Cubic,Pm-3m,221,5,58.7181764499985,6.8126621666421,6.70151843266819,-40.15690393,-8.031380786,Pr,Cr,O,0.118023259500001,,,
mp-861512,PrCrSe3,Orthorhombic,Pnma,62,20,448.19417820688,6.3693170662777,6.35350758833498,-123.7217537,-6.186087685,Pr,Cr,Se,0,,,
mp-1186515,PrCuO3,Cubic,Pm-3m,221,5,56.9104200105911,7.3660703836385,7.36607055289429,-33.20040348,-6.640080696,Pr,Cu,O,0.0246290654999992,,,
mp-1199144,PrErS3,Monoclinic,P2_1/m,11,40,924.830455890515,5.80827166824468,5.78022206186759,-256.90927487,-6.42273187175,Pr,Er,S,0.00219716949999871,,,
mp-22341,PrFeO3,Orthorhombic,Pnma,62,20,242.455841626524,6.70502876370531,6.81748323362017,-158.88799358,-7.944399679,Pr,Fe,O,0,163.468110729308,162.229985552496,162.849048140902
mp-4535,PrGaO3,Orthorhombic,Pnma,62,20,242.177382320271,7.09336776308666,7.09336809213323,-143.09758364,-7.154879182,Pr,Ga,O,0.0292606008571372,,,
mp-9833,PrGaO3,Cubic,Pm-3m,221,5,97.5378152800067,4.40304417258014,4.40304272465558,-28.54341814,-5.708683628,Pr,Ga,O,1.47440343785714,,,
mp-1186747,PrHfO3,Cubic,Pm-3m,221,5,70.2345371649648,8.68625588574446,8.68625454657462,-44.78651983,-8.957303966,Pr,Hf,O,0.223752939749996,,,
mp-755462,PrHfO3,Orthorhombic,Pnma,62,20,276.659844471152,8.82058128815768,8.82058153882406,-180.9220126,-9.04610063,Pr,Hf,O,0.135268315249995,,,
mp-1105130,PrInO3,Orthorhombic,Pnma,62,20,277.680873063414,7.26510706796836,7.06901647051754,-138.46522449,-6.9232612245,Pr,In,O,0.00539631837500032,,,
mp-21872,PrLuO3,Orthorhombic,Pnma,62,20,283.335336375974,8.53017615703679,8.33583487803201,-166.66868223,-8.3334341115,Pr,Lu,O,0.0126164765000016,,,
mp-1206692,PrLuS3,Orthorhombic,Cmcm,63,10,242.906514941566,5.63391848217653,5.63913089752029,-62.63227363,-6.263227363,Pr,Lu,S,0.152006794,,,
mp-1078537,PrLuS3,Orthorhombic,Cmcm,63,10,231.778285675593,5.90441636920988,5.85794157582587,-64.15383995,-6.415383995,Pr,Lu,S,0,,,
mp-13326,PrLuSe3,Orthorhombic,Cmcm,63,10,262.725901708497,6.98728739420765,6.89636067980385,-58.33752798,-5.833752798,Pr,Lu,Se,0,,,
mp-1232362,PrMgS3,Trigonal,R-3,148,30,733.921616575052,3.54869734312051,3.54869697027355,-151.23061954,-5.04102065133333,Pr,Mg,S,0.331201145666665,,,
mp-1232298,PrMgS3,Monoclinic,C2/m,12,20,567.930715089941,3.05725753934162,3.05725707690658,-99.44697148,-4.972348574,Pr,Mg,S,0.391016097499999,,,
mp-1237949,PrMgS3,Monoclinic,C2/m,12,10,263.675778991688,3.29251034579694,3.29251005993545,-98.51562275,-4.9257811375,Pr,Mg,S,0.442871864999999,,,
mp-1232200,PrMgSe3,Trigonal,R-3,148,30,857.334514021135,4.67278904183667,4.67278845254513,-137.09357196,-4.569785732,Pr,Mg,Se,0.292014659333333,,,
mp-1232136,PrMgSe3,Monoclinic,C2/m,12,10,302.553838429228,4.41369745751155,4.32543862320251,-89.50412382,-4.475206191,Pr,Mg,Se,0.388387465,,,
mp-22564,PrMnO3,Orthorhombic,Pnma,62,20,237.742945594428,6.81260699932876,6.64450482719149,-166.76459249,-8.3382296245,Pr,Mn,O,0,,,
mp-975913,PrNbO3,Cubic,Pm-3m,221,5,68.2640790316186,6.85514583949656,6.85514688704457,-42.31031911,-8.462063822,Pr,Nb,O,0.34208520235001,,,
mp-19170,PrNiO3,Trigonal,R-3c,167,10,110.651539434629,7.43140546596299,7.1377949574148,-65.29354376,-6.529354376,Pr,Ni,O,0.00392010699999901,,,
mp-22280,PrNiO3,Orthorhombic,Pnma,62,20,222.646090098356,7.38657889396093,7.25543939689242,-143.68593532,-7.184296766,Pr,Ni,O,0,,,
mp-1186471,PrPbO3,Cubic,Pm-3m,221,5,93.4090064158571,7.04160405588192,7.04160273256898,-31.20396122,-6.240792244,Pr,Pb,O,0.585463062125,,,
mp-4789,PrRhO3,Orthorhombic,Pnma,62,20,247.071731361478,7.84491441545523,7.62329609180238,-149.13190266,-7.456595133,Pr,Rh,O,0,178.641430569637,176.152775995836,177.397103282736
mp-20186,PrRuO3,Orthorhombic,Pnma,62,20,252.948901092128,7.61444268334916,7.61444271096324,-156.90924756,-7.845462378,Pr,Ru,O,0.0756391043000022,,,
mp-559756,PrScO3,Orthorhombic,Pnma,62,20,263.562752556785,5.89364905651823,5.79509926408063,-173.20889541,-8.6604447705,Pr,Sc,O,0,,,
mp-1189962,PrScS3,Orthorhombic,Pnma,62,20,451.326171617713,4.15104898163753,4.14537755564342,-134.09938717,-6.7049693585,Pr,Sc,S,0,,,
mp-753948,PrTiO3,Trigonal,R-3c,167,10,124.521312084382,6.31491205407136,6.31491156661928,-86.21840534,-8.621840534,Pr,Ti,O,0.0588294799999982,,,
mp-754696,PrTiO3,Cubic,Pm-3m,221,5,61.3138109181331,6.41243076311448,6.41242856261643,-42.87870077,-8.575740154,Pr,Ti,O,0.104645013999999,,,
mp-754046,PrTlO3,Cubic,Pm-3m,221,5,100.225879190503,6.51600168858174,6.51601328783699,-28.78238382,-5.756476764,Pr,Tl,O,0.647732866375,,,
mp-1201800,PrTmS3,Monoclinic,P2_1/m,11,40,918.180413708637,5.87457591944277,5.8154818799399,-256.1531799,-6.4038294975,Pr,Tm,S,0.00172176008333302,,,
mp-1209329,PrVO3,Orthorhombic,Pnma,62,20,239.625768215091,6.64829826378247,6.38739790898483,-163.75224326,-8.187612163,Pr,V,O,0,,,
mp-1069346,PrVO3,Cubic,Pm-3m,221,5,60.9724747152063,6.53206051674584,6.53205961549756,-39.90290739,-7.980581478,Pr,V,O,0.212041934499998,,,