material_id,formula_pretty,crystal_system,space_group,number,nsites,volume,density,density,energy,energy_per_atom,A_site,B_site,X_site,energy_above_hull,k_voigt,k_reuss,k_vrh
mp-754915,NaFeO3,Trigonal,R-3,148,10,117.723118522136,3.57807545478361,3.67232387427807,-62.29663265,-6.229663265,Na,Fe,O,0.0549618042499986,66.9276044959038,63.888956724142,65.4082806100229
mp-1186133,NaGeO3,Cubic,Pm-3m,221,5,53.3596441744405,4.46966725014458,4.46966821144209,-27.21552408,-5.443104816,Na,Ge,O,0.233977153124999,,,
mp-1186138,NaInO3,Cubic,Pm-3m,221,5,76.1646891228868,4.05093323888073,4.05093443546201,-22.74893555,-4.54978711,Na,In,O,0.408839032249999,,,
mp-559252,NaIO3,Orthorhombic,Pna2_1,33,20,355.251410802911,3.70000643393944,3.7961217331834,-86.20331844,-4.310165922,Na,I,O,0.133287052,,,
mp-545825,NaIO3,Orthorhombic,Cmmm,65,5,96.7548960160724,3.39629455396884,3.65162918347597,-17.07367589,-3.414735178,Na,I,O,1.030653291,,,
mp-22989,NaIO3,Orthorhombic,Pnma,62,20,291.518969625869,4.50890899938263,4.15740018991922,-88.87909173,-4.4439545865,Na,I,O,0,,,
mp-1079568,NaIrO3,Orthorhombic,Cmcm,63,10,111.774250642395,7.82044400209861,7.45355200658404,-60.59569382,-6.059569382,Na,Ir,O,0,,,
mp-975990,NaLiO3,Cubic,Pm-3m,221,5,56.5269434465109,2.28924633138463,2.28924604418523,-19.70096411,-3.940192822,Na,Li,O,0.469173150999998,,,
mp-12948,NaMgF3,Orthorhombic,Cmcm,63,10,107.306440509241,3.2277202256134,3.01557883505298,-49.19447823,-4.919447823,Na,Mg,F,0.0314010275000003,,,
mp-2955,NaMgF3,Orthorhombic,Pnma,62,20,220.219135096362,3.14555016500907,2.94929740907921,-99.08121879,-4.9540609395,Na,Mg,F,0,69.7082314792481,69.5355688823342,69.6219001807911
mp-560399,NaMgF3,Cubic,Pm-3m,221,5,61.6691548345545,2.80817184295339,2.80817237370033,-24.56195494,-4.912390988,Na,Mg,F,0.0416478025,70.4193860920173,70.4193860920172,70.4193860920172
mp-23730,NaMgH3,Orthorhombic,Pnma,62,20,219.696742973382,1.52129671372986,1.48976298367688,-56.3993442,-2.81996721,Na,Mg,H,0,,,
mp-976775,NaMgO3,Cubic,Pm-3m,221,5,64.8516217142185,2.43999601057102,2.43999670608544,-22.68613557,-4.537227114,Na,Mg,O,0.372954515999998,,,
mp-27176,NaMnCl3,Trigonal,R-3,148,10,231.152833640811,2.64773266891218,2.54646294422544,-45.76335632,-4.576335632,Na,Mn,Cl,0.00683853099999965,,,
mp-560242,NaMnF3,Orthorhombic,Pnma,62,20,249.650995016722,3.5897305696144,3.36226166753561,-112.040661,-5.60203305,Na,Mn,F,0,60.204670256541,59.5279183076467,59.8662942820939
mp-1040471,NaMoO3,Cubic,Pm-3m,221,5,61.577559025202,4.50148428560149,4.55785137222475,-31.82033506,-6.364067012,Na,Mo,O,0.0963398490000005,,,
mp-998627,NaMoO3,Trigonal,R3c,161,10,119.816134459649,4.62692967934122,4.62692954235158,-63.63891793,-6.363891793,Na,Mo,O,0.0882438320000007,,,
mp-4681,NaNbO3,Orthorhombic,Pmc2_1,26,20,241.49733830344,4.50775932664676,4.33335003356276,-153.48122715,-7.6740613575,Na,Nb,O,0.012850997000001,88.8502130859182,83.2660836528667,86.0581483693925
mp-1105765,NaNbO3,Orthorhombic,Pnma,62,20,246.902136020969,4.40908246741636,4.38151034673265,-153.26072813,-7.6630364065,Na,Nb,O,0.0220762319999999,,,
mp-1199593,NaNbO3,Orthorhombic,Pmmn,59,80,1002.38760375346,4.34407558521823,4.34407551975088,-612.57660331,-7.657207541375,Na,Nb,O,0.0295617468750002,,,
mp-1189194,NaNbO3,Orthorhombic,Pnma,62,20,252.065321846647,4.31876892514393,4.31876873793995,-153.14811513,-7.6574057565,Na,Nb,O,0.0264008804999989,,,
mp-1188528,NaNbO3,Orthorhombic,Pna2_1,33,20,240.342914259709,4.5294111642558,4.35571865890345,-153.39155357,-7.6695776785,Na,Nb,O,0.0161635130000004,,,
mp-1194823,NaNbO3,Orthorhombic,Pnma,62,120,1520.88439887815,4.29465334735774,4.29465327856214,-919.79646792,-7.664970566,Na,Nb,O,0.0218920359999988,,,
mp-1977728,NaNbO3,Orthorhombic,Imma,74,10,126.032677109126,4.3187683705041,4.3187683705041,-76.60596319,-7.660596319,Na,Nb,O,0.026266283,,,
mp-559354,NaNbO3,Orthorhombic,Cmcm,63,20,260.553398196179,4.17807592084465,4.17807685200155,-306.09699233,-7.65242480825,Na,Nb,O,0.0360257955000005,,,
mp-4419,NaNbO3,Tetragonal,P4/mbm,127,10,124.813922655834,4.36093929240359,4.36093955645461,-76.592853,-7.6592853,Na,Nb,O,0.0277170949999999,137.606453073685,127.879651276313,132.743052174999
mp-1078295,NaNbO3,Trigonal,R-3,148,10,129.439388644378,4.20510283036238,4.04752572969196,-76.86584218,-7.686584218,Na,Nb,O,0,,,
mp-1199037,NaNbO3,Orthorhombic,P222_1,17,40,519.116188778588,4.19409720840748,4.1940969645467,-305.9011269,-7.6475281725,Na,Nb,O,0.0393387567500003,,,
mp-3671,NaNbO3,Orthorhombic,Pbcm,57,40,481.970670796893,4.51733661427068,4.36127389326196,-306.9473671,-7.6736841775,Na,Nb,O,0.0144399970000002,102.237755186958,100.288234619612,101.262994903285
mp-1198142,NaNbO3,Orthorhombic,Pmmn,59,120,1499.28329786264,4.35652907218915,4.35652900240237,-919.39711578,-7.6616426315,Na,Nb,O,0.0252199704999985,,,
mp-1195803,NaNbO3,Orthorhombic,Pnma,62,60,755.56179164839,4.32239384441095,4.32239398541294,-459.87348644,-7.66455810733333,Na,Nb,O,0.0222125046666672,,,
mp-1203293,NaNbO3,Orthorhombic,Pnma,62,120,1497.35373891307,4.362143096078,4.36214302620129,-919.85205162,-7.6654337635,Na,Nb,O,0.0214288385000003,,,
mp-4748,NaNbO3,Orthorhombic,Cmcm,63,20,247.435328260352,4.3995814451858,4.3995819997487,-153.26788704,-7.663394352,Na,Nb,O,0.0235588090000007,123.833439915898,121.574367482745,122.703903699321
mp-3136,NaNbO3,Cubic,Pm-3m,221,5,64.4491265201727,4.22275652858137,4.22199667741829,-38.23004025,-7.64600805,Na,Nb,O,0.0411970939999993,181.335378554271,181.335378554271,181.335378554271
mp-1190015,NaNbO3,Orthorhombic,Pmn2_1,31,20,240.475072640746,4.52692192643192,4.36220816964766,-153.4069066,-7.67034533,Na,Nb,O,0.0166086414999995,,,
mp-4514,NaNbO3,Trigonal,R3c,161,10,121.690037566684,4.47288825307971,4.32330559250724,-76.76098459,-7.676098459,Na,Nb,O,0.0108596389999995,,,
mp-558920,NaNbO3,Orthorhombic,Pca2_1,29,40,482.529795299249,4.51210221504594,4.3484530078634,-306.94170199,-7.67354254975,Na,Nb,O,0.0144624792499997,,,
mp-561480,NaNiF3,Orthorhombic,Pnma,62,20,222.5903167151,4.1382009643796,3.91924770140902,-86.61899107,-4.3309495535,Na,Ni,F,0,74.0098698718488,73.5331152352989,73.7714925535738
mp-1078237,NaNiF3,Orthorhombic,Cmcm,63,10,108.506466545274,4.24455561322536,3.98438802128165,-43.18333296,-4.318333296,Na,Ni,F,0.0129987724999996,,,
mp-1186154,NaNiO3,Cubic,Pm-3m,221,5,55.7935897591554,3.85960073243513,3.85960015547752,-21.17199614,-4.234399228,Na,Ni,O,0.320573344750001,,,
mp-1040464,NaOsO3,Cubic,Pm-3m,221,5,58.2609879248995,7.44516456615006,7.44516387973573,-33.45413012,-6.690826024,Na,Os,O,0.0350546365,,,
mp-1105218,NaOsO3,Orthorhombic,Pnma,62,20,216.535872538876,8.01276274090765,7.76554649887405,-134.11560369,-6.7057801845,Na,Os,O,0,,,
mp-998624,NaOsO3,Trigonal,R-3c,167,10,109.943236169932,7.89066536511476,7.73308219138863,-67.04161549,-6.704161549,Na,Os,O,0.0154221214999994,,,
mp-865120,NaPaO3,Cubic,Pm-3m,221,5,81.0414845446195,6.18846512489815,6.07821882728476,-40.86755554,-8.173511108,Na,Pa,O,0,,,
mp-1186153,NaPbO3,Cubic,Pm-3m,221,5,79.72380712197,5.79427911841732,5.79427942948464,-23.26567931,-4.653135862,Na,Pb,O,0.308568122374999,,,
mp-1377793,NaPdF3,Triclinic,P-1,2,20,298.408016687407,4.14912110036554,4.14912110036554,-57.87514618,-2.893757309,Na,Pd,F,1.37856979766667,,,
mp-1220961,NaPdF3,Triclinic,P-1,2,20,276.931310264652,4.47089567941133,4.14912107200991,-85.22137169,-4.2610685845,Na,Pd,F,0.00742446366666982,,,
mp-976968,NaPdO3,Cubic,Pm-3m,221,5,63.5760913890229,4.63370517562955,4.63370544970131,-23.10719193,-4.621438386,Na,Pd,O,0.26442624225,,,
mp-35683,NaPF3,Triclinic,P1,1,5,108.110316788277,1.70428992797074,1.70428978711879,-22.09947153,-4.419894306,Na,P,F,0.448690176399998,,,
mp-864891,NaPO3,Triclinic,P-1,2,30,372.316339244514,2.72850939228995,2.5926684438062,-196.07029151,-6.53567638366667,Na,P,O,0.0019802078333333,,,
mp-558192,NaPO3,Monoclinic,P2_1/c,14,40,505.430987010366,2.67987428456006,2.49690993659175,-261.50248989,-6.53756224725,Na,P,O,0.00531727475000032,,,
mp-555118,NaPO3,Orthorhombic,Pnma,62,60,788.615819344604,2.57633337707054,2.41461249430857,-392.55385705,-6.54256428416667,Na,P,O,0,,,
mp-648053,NaPO3,Tetragonal,I4_1/a,88,40,565.011888745634,2.3972796532051,2.39727984169591,-260.50588533,-6.51264713325,Na,P,O,0.0302791375000009,,,
mp-648072,NaPO3,Tetragonal,I4_1/a,88,40,598.460056480475,2.26329475132328,2.32616742036183,-259.44378585,-6.48609464625,Na,P,O,0.0502597330000008,,,
mp-4734,NaPO3,Monoclinic,P2_1/c,14,40,510.77282740988,2.6518472244843,2.48144146359413,-261.40172456,-6.535043114,Na,P,O,0.00787176900000119,,,
mp-1189520,NaPS3,Monoclinic,P2_1/m,11,20,485.665887876132,2.05362668944386,2.05362676454485,-87.88921362,-4.394460681,Na,P,S,0,,,
mp-976952,NaPuO3,Cubic,Pm-3m,221,5,74.4317487479352,7.02724089245519,6.86994154649548,-42.96266221,-8.592532442,Na,Pu,O,0,,,
mp-976923,NaReO3,Cubic,Pm-3m,221,5,58.7556198518798,7.26879054802045,7.26878936583619,-36.94840578,-7.389681156,Na,Re,O,0.0417952146999934,,,
mp-977107,NaRuO3,Cubic,Pm-3m,221,5,57.8464192935717,4.93909533551807,4.93909556290113,-31.01271871,-6.202543742,Na,Ru,O,0.0890767173750024,,,
mp-22212,NaSbO3,Orthorhombic,Pnma,62,20,236.38441497375,5.41601751592295,5.41601730549408,-112.27601445,-5.6138007225,Na,Sb,O,0.0918956149999994,129.045365930853,128.650464004377,128.847914967615
mp-760994,NaSbO3,Triclinic,P-1,2,30,426.446156167934,4.5032489335589,4.50324833229055,-169.21676084,-5.64055869466667,Na,Sb,O,0.0656552866666669,,,
mp-4482,NaSbO3,Trigonal,R-3,148,10,128.83098377675,4.96876641960439,4.70650394672827,-57.06235188,-5.706235188,Na,Sb,O,0,,,
mp-20011,NaSbO3,Cubic,Fd-3m,227,20,280.073434416563,4.57116589674424,4.57556974593067,-113.01564145,-5.6507820725,Na,Sb,O,0.0551372470000002,,,
mp-752755,NaSbO3,Orthorhombic,Pnna,52,20,256.824314290402,4.98497245296403,4.98497225684898,-113.08976715,-5.6544883575,Na,Sb,O,0.0515840775000003,,,
mp-1197679,NaSeO3,Monoclinic,C2/c,15,40,686.91752035661,2.89984696640158,2.89984689304574,-195.86020732,-4.896505183,Na,Se,O,0.194034117999999,,,
mp-728664,NaSeO3,Monoclinic,C2/c,15,40,800.798690080181,2.48746122121499,2.53346226438622,-200.54395847,-5.01359896175,Na,Se,O,0.074092650749999,,,
mp-1186167,NaSiO3,Cubic,Pm-3m,221,5,45.1655967369685,3.64249291692359,3.64249276652174,-31.3116158,-6.26232316,Na,Si,O,0.254937133375003,,,
mp-977112,NaSrO3,Cubic,Pm-3m,221,5,74.5296984781496,3.5338225518348,3.53382277233477,-22.32803665,-4.46560733,Na,Sr,O,0.538816024666668,,,
mp-4675,NaTaO3,Tetragonal,P4/mbm,127,10,118.770011557067,7.04469612357457,6.80769207451133,-82.56689644,-8.256689644,Na,Ta,O,0.00461844150000701,,,
mp-730333,NaTaO3,Triclinic,P1,1,40,581.743225072671,5.75304432575701,5.7530442335996,-208.27282896,-5.206820724,Na,Ta,O,3.18767783950001,,,
mp-4170,NaTaO3,Cubic,Pm-3m,221,5,61.5296549445986,6.79914945700852,6.62286037553053,-41.23431207,-8.246862414,Na,Ta,O,0.014600839500007,,,
mp-3858,NaTaO3,Orthorhombic,Pnma,62,20,234.061035985676,7.14940559405355,6.8857227389562,-165.22652538,-8.261326269,Na,Ta,O,0,,,
mp-754818,NaTaO3,Cubic,Fd-3m,227,20,289.207018860288,5.78615721921449,5.78615795365038,-163.48547717,-8.1742738585,Na,Ta,O,0.0867578065000085,,,
mp-676280,NaTaO3,Triclinic,P1,1,40,583.549082443746,5.73524089188255,5.75304406750921,-326.60247974,-8.1650619935,Na,Ta,O,0.0956489280000081,,,
mp-4699,NaTaO3,Orthorhombic,Cmcm,63,20,235.854054283608,7.09505412196028,6.85710097524516,-165.19830761,-8.2599153805,Na,Ta,O,0.00138729450000774,130.830070638425,128.331434269387,129.580752453906
mp-977176,NaTcO3,Cubic,Pm-3m,221,5,55.540695885972,5.05235161890932,4.81872501547822,-34.36952928,-6.873905856,Na,Tc,O,0,,,
mp-1120777,NaTiF3,Cubic,Pm-3m,221,5,71.893684648794,2.95301606406008,2.95301601675602,-28.17728468,-5.635456936,Na,Ti,F,0.235029018777778,,,
mp-977123,NaTiO3,Cubic,Pm-3m,221,5,59.4255184844996,3.32118801454737,3.32118724644058,-35.21367473,-7.042734946,Na,Ti,O,0.0897572988249982,,,
mp-5788,NaUO3,Orthorhombic,Pnma,62,20,280.298689888675,7.32268282077315,7.08024613228503,-167.22280884,-8.361140442,Na,U,O,0,84.1326594151632,83.7631073737694,83.9478833944663
mp-1120756,NaVF3,Orthorhombic,Pnma,62,20,240.02797524993,3.62305323462804,3.37455793611317,-111.97393094,-5.598696547,Na,V,F,0,,,
mp-20572,NaVF3,Cubic,Pm-3m,221,5,72.3989349466784,3.00292446557039,3.12096701733524,-28.58197346,-5.716394692,Na,V,F,0.0913499079999998,68.5542519067054,68.5542519067054,68.5542519067054
mp-1101657,NaVO3,Monoclinic,C2/c,15,20,316.507110464909,2.5587879755604,2.5587881172738,-132.66448735,-6.6332243675,Na,V,O,0.042872945500001,,,
mp-555665,NaVO3,Orthorhombic,Pnma,62,20,274.589992184758,2.94939586833905,2.79552155399934,-146.8767504,-7.34383752,Na,V,O,0.00108741500000065,,,
mp-19083,NaVO3,Monoclinic,C2/c,15,20,276.591046048342,2.92805786740989,2.71254075547026,-133.51643899,-6.6758219495,Na,V,O,0,,,
mp-1099591,NaVO3,Cubic,Pm-3m,221,5,53.7452079544829,3.7671944125831,3.76719450197389,-32.67281887,-6.534563774,Na,V,O,0.141920087000001,,,
mp-763901,NaVO3,Orthorhombic,Ibam,72,20,316.272602298033,2.56068525238177,2.56069511063252,-132.67257886,-6.633628943,Na,V,O,0.0430134420000003,,,
mp-19328,NaWO3,Cubic,Pm-3m,221,5,62.5512945491811,6.76487675117708,6.7707182036596,-33.18976962,-6.637953924,Na,W,O,0.0553004563043524,191.230373785176,191.230373785176,191.230373785176
mp-1186199,NaYbO3,Cubic,Pm-3m,221,5,86.7771488793398,4.6696392030112,4.66963824222159,-23.00755037,-4.601510074,Na,Yb,O,0.52072505,,,
mp-3795,NaZnF3,Orthorhombic,Pnma,62,20,230.075798391036,4.19744073330682,3.92164602252935,-83.0993129,-4.154965645,Na,Zn,F,0,,,
mp-1180211,NaZnO3,Tetragonal,P4_2/mbc,135,40,586.523426543158,3.08928831559452,3.08928783500861,-159.62224646,-3.9905561615,Na,Zn,O,0.34545083375,,,
mp-1186198,NaZnO3,Cubic,Pm-3m,221,5,59.6465399633637,3.79724450394603,3.79724581345107,-19.6071974,-3.92143948,Na,Zn,O,0.411522345999999,,,
mp-2349989,NbAgO3,Orthorhombic,Pmmm,47,10,137.027154107396,6.02941690773086,6.02941690773086,-72.97286103,-7.297286103,Nb,Ag,O,0.0878245899230725,,,
mp-1203481,NbAgO3,Orthorhombic,Pmc2_1,26,40,514.848987681832,6.41892173869009,6.41892251511805,-292.9821192,-7.32455298,Nb,Ag,O,0.0605651891730741,,,
mp-557680,NbAgO3,Orthorhombic,Cmmm,65,10,136.91213819506,6.03448204582336,6.03633543897777,-145.82265049,-7.2911325245,Nb,Ag,O,0.0917109269230725,134.385956322452,102.276131435646,118.331043879049
mp-1205362,NbAgO3,Orthorhombic,Cmcm,63,20,254.284099930991,6.49819505047772,6.49819488534381,-146.25785205,-7.3128926025,Nb,Ag,O,0.0718574189230727,,,
mp-5537,NbAgO3,Orthorhombic,Pbcm,57,40,513.750327808372,6.43264866276868,6.43264818816244,-293.05975576,-7.326493894,Nb,Ag,O,0.059493849673073,,,
mp-1220387,NbAgO3,Tetragonal,P4/mbm,127,10,127.917980902856,6.4587779916633,6.45877844011831,-73.09811096,-7.309811096,Nb,Ag,O,0.0744839939230735,,,
mp-12725,NbAgO3,Cubic,Pm-3m,221,5,65.1582457381741,6.33990242089448,6.33990000331076,-36.4676203,-7.29352406,Nb,Ag,O,0.0919056189230734,190.271864690325,190.271864690325,190.271864690325
mp-1186216,NbBiO3,Cubic,Pm-3m,221,5,69.4119879174861,8.3702786152332,8.37027988647812,-36.76674511,-7.353349022,Nb,Bi,O,0.418764404868415,,,
mp-1079356,NbCrN3,Tetragonal,P4/nmm,129,10,113.237538993619,5.4821439829623,5.48214300438053,-91.13759168,-9.113759168,Nb,Cr,N,0.422078142399998,,,
mp-17272,NbCuO3,Monoclinic,C2/m,12,20,279.194737977786,4.86396237605368,4.65139074993081,-153.90308073,-7.6951540365,Nb,Cu,O,0.0177181852857196,,,
mp-1186220,NbFeO3,Cubic,Pm-3m,221,5,64.1749752182761,5.09093089348166,5.09092982010226,-38.51807944,-7.703615888,Nb,Fe,O,0.555858301500004,,,
mp-1247545,NbMoN3,Triclinic,P-1,2,20,236.505185963348,6.48379540003555,6.48379555034729,-190.78581496,-9.539290748,Nb,Mo,N,0.189512772133334,,,
mp-1220398,NbMoS3,Monoclinic,P2_1/m,11,10,175.550021942938,5.39244987666738,5.39245004014998,-75.52083756,-7.552083756,Nb,Mo,S,0.0649461380000052,,,
mp-1220396,NbMoSe3,Monoclinic,P2_1/m,11,10,201.27830528647,7.02445586141088,7.02445527852681,-69.40899219,-6.940899219,Nb,Mo,Se,0.0854985803333381,,,
mp-23498,NbSeBr3,Monoclinic,P2/c,13,20,614.983063957416,4.44527349784231,4.01949331560088,-90.92252298,-4.546126149,Nb,Se,Br,0,,,
mp-570270,NbSeCl3,Monoclinic,P2/c,13,20,537.955987059077,3.43525584935181,3.26091617811292,-98.54188271,-4.9270941355,Nb,Se,Cl,0,,,
mp-541817,NbSeI3,Monoclinic,C2/c,15,20,728.473235162324,5.03837497065578,4.82309883445472,-83.24313403,-4.1621567015,Nb,Se,I,0,,,
mp-977408,NbTlO3,Cubic,Pm-3m,221,5,69.353126926338,8.26731308845641,8.26731042062514,-37.07042287,-7.414084574,Nb,Tl,O,0.0906740972499964,,,
mp-757636,NbTlO3,Triclinic,P1,1,40,622.409807817982,7.36960127249368,7.22361540530832,-300.16762171,-7.50419054275,Nb,Tl,O,0,,,
mp-1101462,NbTlO3,Monoclinic,Cc,9,40,621.980646816213,7.37468623049185,7.24071676236271,-300.16456594,-7.5041141485,Nb,Tl,O,9.7517249996848E-05,,,
mp-1247532,NbWN3,Monoclinic,C2/m,12,10,137.758079301588,7.68483701059363,7.68483773891349,-101.48498503,-10.148498503,Nb,W,N,0.1032444254,,,
mp-14254,NdAlO3,Cubic,Pm-3m,221,10,104.234019014929,6.98478797293877,6.77085214442982,-79.04316272,-7.904316272,Nd,Al,O,0.0274909169999997,,,
mp-5899,NdAlO3,Trigonal,R-3c,167,10,105.749134609505,6.88471376219763,6.69664192891947,-79.3173161,-7.93173161,Nd,Al,O,0,,,
mp-975579,NdBeO3,Cubic,Pm-3m,221,5,49.0342457885087,6.81538865711736,6.81538933000244,-35.63207119,-7.126414238,Nd,Be,O,0.266623360000001,-8.62968638463393,-8.62968638463392,-8.62968638463392
mp-974740,NdBiO3,Cubic,Pm-3m,221,5,87.2729081436746,7.63401260248917,7.63401303093932,-30.85620007,-6.171240014,Nd,Bi,O,0.826238429750003,,,
mp-13514,NdBO3,Triclinic,P-1,2,20,241.139395688407,5.59302140004857,5.31546470449524,-166.21390349,-8.3106951745,Nd,B,O,0,,,
mp-7238,NdBO3,Orthorhombic,Pnma,62,20,234.246514580203,5.75760029086053,5.61432039938,-166.05490583,-8.3027452915,Nd,B,O,0.007969211999999,,,
mp-1188683,NdBS3,Orthorhombic,Pna2_1,33,20,407.908793897753,4.09118043686692,4.06537330852926,-120.30939147,-6.0154695735,Nd,B,S,0.000999158030000835,,,
mp-22599,NdCoO3,Orthorhombic,Pnma,62,20,217.356798524111,7.67554983732034,7.40566363513444,-150.39219348,-7.519609674,Nd,Co,O,0,,,
mp-20031,NdCoO3,Cubic,Pm-3m,221,5,54.956300533843,7.58936156248739,7.53763638543315,-37.21779115,-7.44355823,Nd,Co,O,0.0781587440000013,,,
mp-19269,NdCrO3,Orthorhombic,Pnma,62,20,231.447698892267,7.00916742007649,6.7225657063062,-163.25459345,-8.1627296725,Nd,Cr,O,0,,,
mp-19062,NdCrO3,Cubic,Pm-3m,221,5,59.4061959897379,6.82696326325787,6.82696163170524,-40.09196946,-8.018393892,Nd,Cr,O,0.143114159500001,,,
mp-15931,NdCrS3,Orthorhombic,Pnma,62,20,385.822397993942,5.03440535792398,5.03587680303259,-134.77463383,-6.7387316915,Nd,Cr,S,0,,,
mp-864797,NdCrSe3,Orthorhombic,Pnma,62,20,443.309275242114,6.4894606602469,6.48384510217111,-123.55997994,-6.177998997,Nd,Cr,Se,0,,,
mp-1173386,NdCuO3,Orthorhombic,Pnma,62,20,242.829585597083,6.9965606003532,6.74120991442091,-134.14152558,-6.707076279,Nd,Cu,O,0,,,
mp-601267,NdFeO3,Orthorhombic,Pnma,62,20,281.651676055319,5.85056225782036,5.77048430998251,-149.5843813,-7.479219065,Nd,Fe,O,0.643698599,,,
mp-1180433,NdFeO3,Orthorhombic,Pnma,62,20,286.973463976919,5.74206633235479,5.74206567021702,-140.28363631,-7.0141818155,Nd,Fe,O,0.5061606355,,,
mp-20407,NdFeO3,Orthorhombic,Pnma,62,20,239.477780483891,6.88089167375569,6.96369790780648,-159.11990487,-7.9559952435,Nd,Fe,O,0,166.180735648351,165.613628367124,165.897182007738
mp-3196,NdGaO3,Orthorhombic,Pnma,62,20,239.712434282393,7.25869943148793,7.25988217391939,-143.38265403,-7.1691327015,Nd,Ga,O,0.0335974128333314,163.47990847131,161.154622707191,162.31726558925
mp-9834,NdGaO3,Cubic,Pm-3m,221,5,95.056935424114,4.57620609869986,4.57620557417225,-28.6780187,-5.73560374,Nd,Ga,O,1.46625417283333,,,
mp-975347,NdGeO3,Cubic,Pm-3m,221,5,62.4975134250511,7.03778272068849,7.03778358340699,-34.6327009,-6.92654018,Nd,Ge,O,0.455508571749995,,,
mp-755138,NdInO3,Orthorhombic,Pnma,62,20,273.944717390645,7.4450369647798,7.25566397366113,-138.69698659,-6.9348493295,Nd,In,O,0.0147230442499993,,,