material_id,formula_pretty,icsd,crystal_system,symbol,number,point_group,nsites,nelements,volume,density,energy_per_atom,formation_energy_per_atom
mp-23071,CCl3F,"['icsd-74766', 'icsd-80891']",Orthorhombic,Pbca,61,mmm,40,3,923.976000636051,1.97498724392249,-4.35266182725,-1.01551093925
mp-28473,CClF3,['icsd-49696'],Orthorhombic,Cmc2_1,36,mm2,10,3,160.287689377682,2.1643346525075,-5.14822885,-1.785901039
mp-755478,CdBiO3,,Trigonal,R3,146.0,3,10.0,3.0,145.26917584693400,8.444817808315450,-5.373882152,-1.4531931472500000
mp-1183631,CdBO3,,Cubic,Pm-3m,221.0,m-3m,5.0,3.0,42.938277854427800,6.621547143902190,-5.485021036,-0.9965515030833330
mp-547864,CdCO3,['icsd-33662'],Trigonal,R-3m,166.0,-3m,5.0,3.0,70.7555627166026,4.046466013647910,-3.528635046,1.4696892312500000
mp-1198558,CdCO3,['icsd-172439'],Monoclinic,P2_1/c,14.0,2/m,40.0,3.0,563.0646567828520,4.067880679212040,-6.1947669085,-1.1964426312500000
mp-654812,CdCO3,['icsd-33662'],Trigonal,R-3m,166.0,-3m,5.0,3.0,64.92625259175500,4.4097721396232900,-3.873192376,1.1251319012500000
mp-4385,CdCO3,"['icsd-156755', 'icsd-156740', 'icsd-20181']",Trigonal,R-3c,167.0,-3m,10.0,3.0,115.52902720431400,4.956502910786650,-6.761938697,-1.7636144197500000
mp-768578,CdCoO3,,Monoclinic,C2/c,15.0,2/m,20.0,3.0,236.9893852503210,6.1475599926029200,-5.727936619500000,-1.1536818817500000
mp-770662,CdCoO3,,Trigonal,R-3,148.0,-3,10.0,3.0,111.68017699771300,6.522672611211340,-5.714080059,-1.1398253212500000
mp-752746,CdCoO3,,Orthorhombic,Pnma,62.0,mmm,20.0,3.0,217.36109870664100,6.702701044968170,-5.674122783,-1.0998680452500000
mp-776476,CdFeO3,,Orthorhombic,Pnma,62.0,mmm,20.0,3.0,224.18182162147900,6.407273253808280,-6.170801069,-1.3242056482500000
mp-1290304,CdFeO3,,Monoclinic,P2_1/c,14.0,2/m,20.0,3.0,227.15223465874100,6.323486941800350,-6.1633916635,-1.3167962427500000
mp-1639105,CdFeO3,,Monoclinic,P2_1/m,11.0,2/m,20.0,3.0,225.92598167740100,6.357808778789960,-6.156007203,-1.3094117822500000
mp-2951,CdGeO3,"['icsd-9375', 'icsd-77134', 'icsd-20225']",Monoclinic,C2/c,15.0,2/m,20.0,3.0,261.90346298776600,5.91038081933195,-5.9424255485,-1.8652287987500000
mp-685935,CdGeO3,,Orthorhombic,Cmc2_1,36.0,mm2,10.0,3.0,154.93044510132900,4.995626273283810,-5.846945601,-1.7697488512500000
mp-13003,CdGeO3,['icsd-158753'],Orthorhombic,Pnma,62.0,mmm,20.0,3.0,215.97939401466800,7.1671152297722500,-5.8255737845000000,-1.7483770347500000
mp-8275,CdGeO3,['icsd-30971'],Trigonal,R-3,148.0,-3,10.0,3.0,118.83630558937100,6.512947354272030,-5.921550844,-1.84435409425
mp-1227040,CdGeO3,,Monoclinic,Cc,9.0,m,10.0,3.0,137.79220244027500,5.616969526379600,-5.230886904,-1.1536901542500000
mp-1016903,CdGeO3,,Cubic,Pm-3m,221.0,m-3m,5.0,3.0,54.11695667257230,7.150943527391870,-5.64122451,-1.56402776025
mp-7588,CdGeO3,"['icsd-23531', 'icsd-17016']",Tetragonal,I4_1/a,88.0,4/m,80.0,3.0,996.4899421647860,6.213606936349900,-5.926822038875000,-1.8496252891250000
mp-505222,CdInBr3,['icsd-79512'],Orthorhombic,Pnma,62.0,mmm,20.0,3.0,615.4076256288420,5.039741075713650,-2.827530226,-1.1607985300000000
mp-1016828,CdIrO3,,Cubic,Pm-3m,221.0,m-3m,5.0,3.0,61.77813947332080,9.478265062669580,-5.760263306000000,-0.8399852912500000
mp-2647004,CdIrO3,,Trigonal,R-3,148.0,-3,30.0,3.0,388.28158042161500,9.048323853594390,-6.115731398666670,-1.1954533839166700
mp-1016882,CdOsO3,,Cubic,Pm-3m,221.0,m-3m,5.0,3.0,61.29977114342220,9.498405606100680,-6.441248956,-1.0431842912500000
mp-685257,CdPbO3,,Orthorhombic,Ibca,73.0,mmm,40.0,3.0,577.0968158397650,8.462073206254710,-5.27843203125,-1.3833114385000000
mp-5328,CdPS3,"['icsd-79556', 'icsd-620232', 'icsd-657320', 'icsd-61393']",Monoclinic,C2/m,12.0,2/m,10.0,3.0,230.0018155238130,3.459377513709600,-4.456263506,-0.7071551325416660
mp-9330,CdPS3,,Trigonal,R-3,148.0,-3,10.0,3.0,228.04409683199700,3.489075664701980,-4.456015427,-0.7069070535416660
mp-1079559,CdPSe3,"['icsd-620237', 'icsd-620234']",Trigonal,R-3,148.0,-3,10.0,3.0,261.691952841095,4.825860987294310,-3.954065545,-0.5892802050729170
mp-1016875,CdRhO3,,Cubic,Pm-3m,221.0,m-3m,5.0,3.0,61.70418835153960,7.086137227330520,-5.479369706,-0.8539169532500000
mp-1016849,CdRuO3,,Cubic,Pm-3m,221.0,m-3m,5.0,3.0,60.61615746211360,7.1630476902911000,-6.094784726,-1.0873130392500000
mp-9186,CdSeO3,['icsd-75273'],Orthorhombic,Pnma,62,mmm,20,3,273.487813437234,5.81352277375989,-5.258939851,-1.40716637671875
mp-559203,CdSeO3,['icsd-75274'],Monoclinic,P2_1/c,14,2/m,40,3,632.485547555402,5.02755402999588,-5.26891614325,-1.41714266896875
mp-776023,CdSiO3,,Orthorhombic,Pbcn,60.0,mmm,40.0,3.0,529.9800388010570,4.724748711745970,-6.75465183,-2.51699704525
mp-1016879,CdSiO3,,Cubic,Pm-3m,221.0,m-3m,5.0,3.0,47.43478301350350,6.598592705861920,-6.4069444960000000,-2.16928971125
mp-560560,CdSiO3,['icsd-170703'],Monoclinic,P2_1/c,14.0,2/m,60.0,3.0,766.931992499724,4.897479561547850,-6.7814507625000000,-2.5437959777500000
mp-1016881,CdSnO3,,Cubic,Pm-3m,221.0,m-3m,5.0,3.0,66.7948768517519,6.938980318308380,-5.454133626,-1.49962807625
mp-1182642,CdSnO3,,Monoclinic,P2_1/m,11.0,2/m,10.0,3.0,155.81331424913800,5.949277673370610,-5.720829872,-1.76632432225
mp-754329,CdSnO3,"['icsd-180400', 'icsd-180399', 'icsd-181930']",Trigonal,R-3,148.0,-3,10.0,3.0,131.04061486299900,7.073964607426620,-5.800440844,-1.8459352942500000
mp-849371,CdSnO3,"['icsd-180402', 'icsd-180401', 'icsd-165167']",Orthorhombic,Pnma,62.0,mmm,20.0,3.0,242.8075437023760,7.6354849403899000,-5.7700575915000000,-1.81555204175
mp-18634,CdSO3,['icsd-62642'],Trigonal,R-3,148,-3,30,3,451.782296828179,4.24466736288433,-5.61764981466667,-1.63776866254167
mp-556680,CdSO3,['icsd-62641'],Monoclinic,P2_1/c,14,2/m,40,3,624.564559501456,4.09387210401697,-5.620480781,-1.640599628875
mp-8516,CdSO3,['icsd-62640'],Monoclinic,P2_1/c,14,2/m,20,3,300.59403038203,4.25305756080895,-5.620434524,-1.640553371875
mp-1189706,CdTcO3,['icsd-180009'],Orthorhombic,Pnma,62.0,mmm,20.0,3.0,238.9613288887260,7.18272824752602,-6.785474975,-1.5607560072500000
mp-19843,CeAlO3,"['icsd-245266', 'icsd-245562']",Orthorhombic,Imma,74.0,mmm,20.0,3.0,213.7515026909710,6.683927317617280,-8.525620271,-3.6218740472500000
mp-4096,CeAlO3,"['icsd-245265', 'icsd-150277', 'icsd-245264', 'icsd-245561', 'icsd-245554', 'icsd-166284']",Tetragonal,I4/mcm,140.0,4/mmm,10.0,3.0,106.62207029006300,6.699830082698580,-8.520020075,-3.616273851250000
mp-776167,CeAlO3,,Orthorhombic,Pnma,62.0,mmm,20.0,3.0,218.92352138921600,6.526021045851420,-8.522544917000000,-3.6187986932500000
mp-3408,CeAlO3,"['icsd-245268', 'icsd-245271', 'icsd-245269', 'icsd-245563', 'icsd-245270', 'icsd-245267']",Trigonal,R-3c,167.0,-3m,10.0,3.0,106.8926141185250,6.6828728991216800,-8.524981815,-3.6212355912500000
mp-5323,CeAlO3,"['icsd-245564', 'icsd-72558', 'icsd-245272', 'icsd-245273', 'icsd-245274', 'icsd-245565', 'icsd-166283']",Cubic,Pm-3m,221.0,m-3m,5.0,3.0,53.243562933991900,6.708320355031180,-8.508505242,-3.6047590182500000
mp-1078398,CeAsO3,['icsd-291400'],Monoclinic,P2_1/m,11.0,2/m,10.0,3.0,140.19995683688000,6.230832471975320,-7.836076696000000,-2.749621957250000
mp-1195015,CeAsO3,"['icsd-426720', 'icsd-291399']",Monoclinic,P2_1/c,14.0,2/m,40.0,3.0,582.7221069567660,5.996425625181110,-7.90909450425,-2.8226397655
mp-1183685,CeBeO3,,Cubic,Pm-3m,221.0,m-3m,5.0,3.0,46.67338151802650,7.013334961429550,-8.082590292,-3.1800766612500000
mp-20882,CeBO3,['icsd-99689'],Orthorhombic,Pnma,62.0,mmm,20.0,3.0,240.9429887520790,5.483837776597160,-8.89645118,-3.405941768083330
mp-20178,CeBO3,['icsd-99690'],Monoclinic,P2_1/m,11.0,2/m,10.0,3.0,124.84650887509300,5.291666846074190,-8.898571303,-3.408061891083330
mp-1189296,CeBS3,['icsd-421071'],Orthorhombic,Pna2_1,33.0,mm2,20.0,3.0,415.117647879931,3.954115054487080,-6.523589922000000,-1.5192238167083300
mp-1213812,CeCdO3,,Orthorhombic,Cmcm,63.0,mmm,20.0,3.0,305.7288508020770,6.529103599984980,-7.0651081545,-2.7258991447500000
mp-780712,CeCrO3,,Orthorhombic,Pnma,62.0,mmm,20.0,3.0,245.02487755512800,6.508931459065260,-9.187636586,-3.1023960342500000
mp-20530,CeCrO3,['icsd-28931'],Cubic,Pm-3m,221.0,m-3m,5.0,3.0,59.618378740261400,6.687745320618520,-9.057196486,-2.9719559342500000
mp-21871,CeCrS3,['icsd-88975'],Orthorhombic,Pnma,62.0,mmm,20.0,3.0,387.85072899440700,4.937417072484670,-7.272074480000000,-1.6729772348750000
mp-20170,CeCrSe3,"['icsd-620824', 'icsd-26302']",Orthorhombic,Pnma,62.0,mmm,20.0,3.0,446.0415230478960,6.38826749980657,-6.686768557000000,-1.4719943454062500
mp-977389,CeCuO3,,Cubic,Pm-3m,221.0,m-3m,5.0,3.0,56.30938271874030,7.421349221597680,-7.310193148000000,-2.3357207562500000
mp-20775,CeDyS3,['icsd-200015'],Orthorhombic,Pnma,62.0,mmm,20.0,3.0,457.6605672097800,5.788055979804420,-6.943926621,-2.354081501875
mp-638813,CeErS3,['icsd-173038'],Orthorhombic,Pnma,62.0,mmm,60.0,3.0,1377.6275976004100,5.8373721804792700,-6.922909272333330,-2.340877759208330
mp-1202288,CeErS3,['icsd-620977'],Monoclinic,P2_1/m,11.0,2/m,40.0,3.0,907.2817040392710,5.909024710841130,-6.926495631750000,-2.3444641186250000
mp-756062,CeFeO3,,Orthorhombic,Pnma,62.0,mmm,20.0,3.0,245.92482125636700,6.589067019537280,-8.719293432,-2.870658132250000
mp-864636,CeFeO3,,Cubic,Pm-3m,221.0,m-3m,5.0,3.0,60.86443995809570,6.6558368488298100,-8.422955156,-2.5743198562500000
mp-22540,CeGaO3,['icsd-76048'],Cubic,Pm-3m,221.0,m-3m,5.0,3.0,85.9685597555511,4.9802944778903500,-7.001328244,-2.24107798175
mp-33365,CeGaO3,['icsd-55629'],Cubic,Pm-3m,221.0,m-3m,5.0,3.0,59.063110754509600,7.2490042930911400,-7.652547534,-2.8922972717500000
mp-1019598,CeGaO3,['icsd-183679'],Orthorhombic,Pnma,62.0,mmm,20.0,3.0,241.53359368034100,7.090504254897030,-7.757944517,-2.9976942547500000
mp-1213810,CeLuO3,,Orthorhombic,Pnma,62.0,mmm,20.0,3.0,288.41203700202800,8.36179409451996,-8.9494973105,-3.89067614875
mp-1092225,CeLuS3,['icsd-621478'],Orthorhombic,Cmcm,63.0,mmm,10.0,3.0,230.3592996435990,5.929373698302900,-6.921287421,-2.3486095658750000
mp-1205797,CeLuS3,,Orthorhombic,Cmcm,63.0,mmm,10.0,3.0,239.69013903796800,5.698550545084650,-6.78681457,-2.214136714875
mp-1232253,CeMgS3,,Trigonal,R-3,148.0,-3,30.0,3.0,712.4397060768080,3.6446288354487300,-5.818848360333330,-1.830304599208330
mp-1232197,CeMgS3,,Monoclinic,C2/m,12.0,2/m,10.0,3.0,249.9385895264060,3.4629550418848300,-5.633451321,-1.644907559875
mp-1232259,CeMgSe3,,Monoclinic,C2/m,12.0,2/m,10.0,3.0,286.5655637034560,4.650775057223740,-5.093871503,-1.4896507754062500
mp-1232360,CeMgSe3,,Trigonal,R-3,148.0,-3,30.0,3.0,833.3870409532970,4.797597912274160,-5.261986755666670,-1.6577660280729200
mp-1183706,CeMnO3,,Cubic,Pm-3m,221.0,m-3m,5.0,3.0,60.371551975903500,6.685230623331080,-8.780599036,-2.7935649198362100
mp-866095,CeNiO3,,Cubic,Pm-3m,221.0,m-3m,5.0,3.0,54.242728695214100,7.555550238569520,-7.708842996000000,-2.3981846022500000
mp-776207,CeNiO3,,Orthorhombic,Pnma,62.0,mmm,20.0,3.0,233.389042111955,7.024042911786610,-8.0604770275,-2.7498186337500000
mp-1214439,CePbO3,,Orthorhombic,Cmcm,63.0,mmm,20.0,3.0,361.1342055144160,7.270811378796640,-7.465946467500000,-2.5687859957500000
mp-1183759,CePuO3,,Cubic,Pm-3m,221.0,m-3m,5.0,3.0,83.18430470359810,8.625936261526140,-10.091614706,-3.08341598225
mp-1213826,CeRhO3,,Orthorhombic,Pnma,62.0,mmm,20.0,3.0,251.99033953667300,7.670922335971270,-8.1817845965,-2.55429196475
mp-38685,CeSbO3,,Cubic,Fd-3m,227.0,m-3m,20.0,3.0,331.44056538982200,6.209960621159650,-7.464110035,-2.4836787292500000
mp-777413,CeScO3,['icsd-195596'],Orthorhombic,Pnma,62.0,mmm,20.0,3.0,263.33288447133700,5.8788256090357600,-9.277669205000000,-3.85654432625
mp-20953,CeScS3,"['icsd-23294', 'icsd-400014']",Orthorhombic,Pnma,62.0,mmm,20.0,3.0,450.19260529870300,4.149821121189260,-7.2115740465,-2.2765924743750000
mp-1183701,CeTaO3,,Cubic,Pm-3m,221.0,m-3m,5.0,3.0,66.66087960201670,9.193428072048940,-9.5829654,-3.056778816250000
mp-754524,CeTiO3,,Cubic,Pm-3m,221.0,m-3m,5.0,3.0,61.288438271041000,6.393636591786040,-9.23293956,-3.4992100989166700
mp-1213788,CeTmO3,,Orthorhombic,Pnma,62.0,mmm,20.0,3.0,293.9370669190830,8.068296247041620,-8.914985164000000,-3.8651870215833300
mp-683985,CeTmS3,['icsd-173039'],Orthorhombic,Pnma,62.0,mmm,60.0,3.0,1359.6375821514000,5.939160655086270,-6.90507355,-2.3414187142083300
mp-541836,CeTmS3,"['icsd-622061', 'icsd-42429']",Monoclinic,P2_1/m,11.0,2/m,40.0,3.0,911.783348536846,5.904257881764350,-6.93654972675,-2.372894890958330
mp-22593,CeVO3,['icsd-28926'],Cubic,Pm-3m,221.0,m-3m,5.0,3.0,60.2489661693708,6.588682830299180,-8.936921746,-2.9655094742500000
mp-18769,CeVO3,"['icsd-165721', 'icsd-99834', 'icsd-185832', 'icsd-63521', 'icsd-162748']",Orthorhombic,Pnma,62.0,mmm,20.0,3.0,238.20798811685600,6.665793739018930,-9.1987452875,-3.2273330157500000
mp-556845,CIF3,['icsd-73268'],Orthorhombic,Cmce,64,mmm,20,3,467.975685858363,2.78063026528003,-4.8468588175,-1.5595650685
mp-1188937,CN3Cl,['icsd-16730'],Monoclinic,P2_1/c,14,2/m,20,3,415.3915308317,1.43085580421257,-6.484104575,0.7332328105
mp-1206915,CoAgF3,,Cubic,Pm-3m,221.0,m-3m,5.0,3.0,84.24074112678910,4.411440354630910,-3.9836222840000000,-0.848560143833334
mp-1206910,CoAgF3,,Cubic,Pm-3m,221.0,m-3m,5.0,3.0,66.1825258716729,5.615122723350050,-4.771893986,-1.6368318458333300
mp-752700,CoAgO3,,Monoclinic,C2/c,15.0,2/m,20.0,3.0,233.99424736183200,6.097297228607660,-5.325607808000000,-0.3694198215833330
mp-1273356,CoAgO3,,Triclinic,P-1,2.0,-1,20.0,3.0,224.59738848804300,6.352400112726090,-5.706059260000000,-0.7498712735833340
mp-753992,CoAgO3,,Trigonal,R-3,148.0,-3,10.0,3.0,112.71986320984200,6.328664865807180,-5.695152451,-0.7389644645833330
mp-1183686,CoAuO3,,Cubic,Pm-3m,221.0,m-3m,5.0,3.0,54.82851821037040,9.203867949631240,-5.270631246000000,-0.22617806025000100
mp-1188346,CoBiO3,['icsd-247467'],Orthorhombic,Pnma,62.0,mmm,20.0,3.0,225.4877037010110,9.305764679617510,-6.550150727,-1.3923761152500000
mp-545522,CoBiO3,"['icsd-157833', 'icsd-247466']",Tetragonal,P4mm,99.0,4mm,5.0,3.0,55.77490557004570,9.40537454677399,-6.632379522000000,-1.4746049102500000
mp-757083,CoBO3,,Triclinic,P-1,2.0,-1,10.0,3.0,119.6691120518730,3.2676075445065200,-7.691966077000000,-1.966410937083330
mp-1183397,CoBO3,,Cubic,Pm-3m,221.0,m-3m,5.0,3.0,37.75525238159950,5.178507210504990,-6.641636028000000,-0.9160808880833340
mp-765572,CoBO3,,Monoclinic,C2/c,15.0,2/m,20.0,3.0,231.93289533114300,3.371938187783150,-7.6689170925,-1.9433619525833300
mp-21434,CoCO3,"['icsd-5208', 'icsd-52377', 'icsd-5396', 'icsd-61066']",Trigonal,R-3c,167.0,-3m,10.0,3.0,92.16431121165970,4.285997319660150,-7.907360729,-1.6719508447500000
mp-1181984,CoCO3,,Monoclinic,C2/c,15.0,2/m,10.0,3.0,239.14484629654700,1.6517855054742200,-7.485859252,-1.2504493677500000
mp-22136,CoGeO3,['icsd-26814'],Monoclinic,C2/c,15.0,2/m,20.0,3.0,219.53869917220400,5.432943126031130,-7.105979349,-1.7916969922500000
mp-550220,CoGeO3,,Monoclinic,C2,5.0,2,20.0,3.0,227.07110289681400,5.252721510351960,-7.1073308635000000,-1.7930485067500000
mp-1246547,CoMoN3,,Triclinic,P-1,2.0,-1,20.0,3.0,370.4612353639290,3.5301832104286400,-8.461275589,0.1314149470000000
mp-1183772,CoMoO3,,Cubic,Pm-3m,221.0,m-3m,5.0,3.0,63.216023109056,5.328963454597330,-7.612427734000000,-1.0536209262500000
mp-1272234,CoNiO3,,Triclinic,P1,1.0,1,10.0,3.0,96.02910678797520,5.727980852771100,-6.66452157,-1.1188174482500000
mp-1279343,CoNiO3,,Triclinic,P-1,2.0,-1,10.0,3.0,94.7561740490661,5.804929235591630,-6.68777252,-1.1420683982500000
mp-1178424,CoNiO3,,Trigonal,R-3,148.0,-3,10.0,3.0,87.35959763657710,6.296421914378500,-6.688139231000000,-1.1424351092500000
mp-770488,CoPbO3,,Orthorhombic,Pbam,55.0,mmm,40.0,3.0,443.8019890028440,9.402886266734850,-6.31544372475,-1.1832375250000000
mp-1178420,CoPbO3,,Trigonal,R-3,148.0,-1,20.0,3.0,254.27265632214200,8.205797052471080,-6.4182856405,-1.2860794407500000
mp-755569,CoPbO3,,Orthorhombic,Pnma,62.0,mmm,20.0,3.0,218.68003110633000,9.541382462844480,-6.3287549965,-1.1965487967500000
mp-676437,CoPS3,['icsd-624616'],Monoclinic,C2/m,12.0,2/m,10.0,3.0,189.78855980601200,3.2565668898597600,-5.513311689,-0.5271177085416670
mp-1183715,CoRhO3,,Cubic,Pm-3m,221.0,m-3m,5.0,3.0,59.037908071244900,5.902010642739140,-6.311539472,-0.44900111225000000
mp-1183681,CoSbO3,,Cubic,Pm-3m,221.0,m-3m,5.0,3.0,53.359474093335900,7.116842923310960,-6.28937231,-1.0738952762500000
mp-22616,CoSeO3,"['icsd-155490', 'icsd-496', 'icsd-155489']",Orthorhombic,Pnma,62,mmm,20,3,234.63049713343,5.2624007077261,-6.3759718795,-1.28711279821875
mp-562826,CoSeO3,['icsd-80401'],Monoclinic,C2/c,15,2/m,80,3,1147.99568100762,4.30217539872745,-6.405229010625,-1.31636992934375
mp-699575,CoSiO3,['icsd-17054'],Orthorhombic,Pbca,61.0,mmm,80.0,3.0,879.1468013139680,4.080334769363950,-7.93103831725,-2.4562979255000000
mp-761574,CoSnO3,,Trigonal,R-3,148.0,-1,20.0,3.0,236.2188751736580,6.34473178596197,-6.941385222000000,-1.74979406525
mp-752613,CoSnO3,,Orthorhombic,Pnma,62.0,mmm,20.0,3.0,228.5001761928930,6.559055799122410,-6.899944683000000,-1.70835352625
mp-1183692,CoSnO3,,Cubic,Pm-3m,221.0,m-3m,5.0,3.0,52.426711210164100,7.146859736015270,-6.292458916000000,-1.10086775925
mp-1247505,CoWN3,,Triclinic,P-1,2.0,-1,20.0,3.0,282.54399380165300,6.695033731068770,-9.052203669500000,-0.037017109499998900
mp-559851,CrBiO3,"['icsd-174403', 'icsd-160454']",Orthorhombic,Pnma,62.0,mmm,20.0,3.0,231.942668887704,8.84812721008082,-7.670347761,-2.003627214250000
mp-1181841,CrBiO3,,Monoclinic,Cc,9.0,m,10.0,3.0,455.0453581219350,2.2550040376569800,-5.734605755,-0.06788520825000010
mp-546027,CrBiO3,['icsd-246425'],Trigonal,R3c,161.0,3m,10.0,3.0,118.64886501255900,8.64845289310953,-7.6668454100000000,-2.000124863250000
mp-23456,CrBiO3,"['icsd-160458', 'icsd-160455', 'icsd-174406', 'icsd-160457', 'icsd-174405', 'icsd-174404', 'icsd-160456']",Monoclinic,C2/c,15.0,2/m,20.0,3.0,248.44169502757900,8.2605226129062,-7.6588676630000000,-1.9921471162500000
mp-19299,CrBO3,['icsd-43311'],Trigonal,R-3c,167.0,-3m,10.0,3.0,86.63825814730750,4.247466035697330,-8.855383028,-2.620881953083330
mp-1206044,CrCoBr3,,Hexagonal,P6_3/mmc,194.0,6/mmm,10.0,3.0,258.1402917698160,4.511140548565830,-4.54526904,-0.2611789890000000
mp-1205501,CrCoCl3,,Hexagonal,P6_3/mmc,194.0,6/mmm,10.0,3.0,213.029918067453,3.3874650643968100,-4.956122966,-0.49472791699999900
mp-1183696,CrCuO3,,Cubic,Pm-3m,221.0,m-3m,5.0,3.0,50.60278799076260,5.3666026694627400,-6.743428026000000,-1.0249639712500000
mp-1245144,CrFeO3,,Triclinic,P1,1.0,1,80.0,3.0,1042.579330227890,3.971338978378310,-8.22247648325,-1.6298495205000000
mp-1245204,CrFeO3,,Triclinic,P1,1.0,1,80.0,3.0,1027.2413532229400,4.030635954437640,-8.24865710575,-1.6560301430000000
mp-1245147,CrFeO3,,Triclinic,P1,1.0,1,80.0,3.0,1022.7164718118600,4.048469000259950,-8.171789855750000,-1.5791628930000000
mp-1245260,CrFeO3,,Triclinic,P1,1.0,1,80.0,3.0,1025.63001342778,4.036968378438650,-8.222712766250000,-1.6300858035000000
mp-1245072,CrFeO3,,Triclinic,P1,1.0,1,80.0,3.0,1037.6192680790400,3.9903229050967700,-8.182853863375,-1.5902269006250000
mp-1244905,CrFeO3,,Triclinic,P1,1.0,1,80.0,3.0,1005.4239736004500,4.118099469379600,-8.199979077875000,-1.6073521151250000
mp-1078458,CrFeO3,['icsd-252042'],Trigonal,R-3,148.0,-3,10.0,3.0,100.51694794704100,5.148927639504910,-8.620241222,-2.0276142592500000
mp-1244876,CrFeO3,,Triclinic,P1,1.0,1,80.0,3.0,1143.7901287033200,3.6199262681864800,-7.871101631,-1.27847466825
mp-1245179,CrFeO3,,Triclinic,P1,1.0,1,80.0,3.0,991.2331187854310,4.177055683186700,-8.23121358425,-1.6385866215000000
mp-8829,CrGaSe3,['icsd-66279'],Orthorhombic,Pnma,62.0,mmm,20.0,3.0,482.7416734840410,4.934049389189810,-5.4955389035,-0.8617633184062510
mp-1183712,CrGeO3,,Cubic,Pm-3m,221.0,m-3m,5.0,3.0,52.451887167378300,5.465313354129080,-7.3711530200000000,-1.5479247282500000
mp-28532,CrInBr3,['icsd-54136'],Monoclinic,P2_1/c,14.0,2/m,20.0,3.0,617.0451077727010,4.376033208199130,-4.437823075500000,-1.0250598375000000
mp-756147,CrInO3,['icsd-185586'],Orthorhombic,Pnma,62.0,mmm,20.0,3.0,221.05787380768000,6.454494653224260,-7.5802655195,-2.13130605275
mp-1226313,CrMoO3,,Trigonal,R3,146.0,3,5.0,3.0,60.32568395170270,5.39333395535818,-8.717012552,-1.6492598092500000