nsites,nelements,formula_pretty,volume,density,crystal_system,symbol,number,point_group,symprec,version,material_id,energy_per_atom,formation_energy_per_atom,e_total,e_electronic,icsd
10.0,3.0,SrZrO3,139.29130396935383,5.408526222661621,Tetragonal,I4/mcm,140.0,4/mmm,0.1,1.16.2,mp-5076,-8.665868154,-3.650416110583334,63.08899612426972,4.625442480000001,"['icsd-1522', 'icsd-89357', 'icsd-89356', 'icsd-89362', 'icsd-89361', 'icsd-89358', 'icsd-290620', 'icsd-188451', 'icsd-89360', 'icsd-89359']"
20.0,3.0,SrZrO3,279.02747839948415,5.39990308071661,Orthorhombic,Cmcm,63.0,mmm,0.1,1.16.2,mp-3626,-8.670266024,-3.6548139805833335,,,"['icsd-89355', 'icsd-188452']"
20.0,3.0,SrZrO3,278.2199660312183,5.415575890210902,Orthorhombic,Pnma,62.0,mmm,0.1,1.16.2,mp-4387,-8.6784611755,-3.663009132083334,42.79872520666666,4.697749273333333,"['icsd-650', 'icsd-159454', 'icsd-184465', 'icsd-173398', 'icsd-188454', 'icsd-89354']"
10.0,3.0,SrZrO3,139.96387922066543,5.382536367967061,Tetragonal,P4/mbm,127.0,4/mmm,0.1,1.16.2,mp-1020622,-8.658711245000001,-3.6432592015833345,,,['icsd-188450']
5.0,3.0,SrZrO3,74.58215804793349,5.050542179423131,Tetragonal,P4mm,99.0,4mm,0.1,1.16.2,mp-1068742,-8.63012045,-3.614668406583333,,,['icsd-188449']
5.0,3.0,SrZrO3,73.96074740540564,5.092976318759586,Cubic,Pm-3m,221.0,m-3m,0.1,1.16.2,mp-3323,-8.623552264,-3.6081002205833337,,,"['icsd-187481', 'icsd-27046', 'icsd-89364', 'icsd-191829', 'icsd-188448', 'icsd-89365', 'icsd-290618', 'icsd-89366', 'icsd-89363', 'icsd-29153']"
10.0,3.0,SrZrO3,139.44806583680602,5.402446176547386,Orthorhombic,Imma,74.0,mmm,0.1,1.16.2,mp-1080575,-8.672668996,-3.657216952583334,,,['icsd-188453']
40.0,3.0,SrZrO3,592.0000195401844,5.090274630005099,Cubic,P2_13,198.0,23,0.1,1.16.2,mp-557203,-8.62373121625,-3.608279172833334,49.367656023333346,4.65340938,['icsd-41083']
5.0,3.0,SrZrO3,85.49650328956366,4.405798138641195,Cubic,Pm-3m,221.0,m-3m,0.1,1.16.2,mp-613402,-6.161220496,-1.1457684525833336,,,['icsd-33666']
20.0,3.0,SrZrS3,461.5351916601778,3.9582074137901837,Orthorhombic,Pnma,62.0,mmm,0.1,1.16.2,mp-558760,-6.6073160515,-2.0780073147083336,30.64681276666667,7.732861540000001,['icsd-154103']
20.0,3.0,SrZrS3,474.6162826351481,3.8491136612747563,Orthorhombic,Pnma,62.0,mmm,0.1,1.16.2,mp-5193,-6.608256288,-2.0789475512083335,,,"['icsd-154104', 'icsd-23287']"
20.0,3.0,SrZrSe3,530.3759627979628,5.206313945914518,Orthorhombic,Pnma,62.0,mmm,0.1,1.16.2,mp-541570,-6.0233354895,-1.8783497862395833,,,['icsd-84723']
5.0,3.0,SrNbO3,67.40372672579457,5.629866643903787,Cubic,Pm-3m,221.0,m-3m,0.1,1.16.2,mp-7006,-8.502292542,-3.1761196165833327,,,['icsd-42004']
20.0,3.0,SrNbO3,266.950371096918,5.686060539403957,Orthorhombic,Pnma,62.0,mmm,0.1,1.16.2,mp-10339,-8.507971198,-3.1817982725833334,,,['icsd-88723']
20.0,3.0,SrNbO3,267.1054530886573,5.682759200612838,Tetragonal,P4/mbm,127.0,4/mmm,0.1,1.16.2,mp-1173150,-8.5061820585,-3.1800091330833338,,,
10.0,3.0,SrMoO3,135.04259794686644,5.694668839870292,Monoclinic,C2/m,12.0,2/m,0.1,1.16.2,mp-1542758,-8.073330959,-2.5982890195833326,21.782806466701107,6.000082546305154,
10.0,3.0,SrMoO3,134.51072644002824,5.71718624184237,Tetragonal,I4/mcm,140.0,4/mmm,0.1,1.16.2,mp-1187247,-8.033093228999999,-2.558051289583333,,,
10.0,3.0,SrMoO3,126.32524882412753,6.087641874775175,Orthorhombic,Imma,74.0,mmm,0.1,1.16.2,mp-1078716,-8.064238283,-2.589196343583334,,,['icsd-174205']
5.0,3.0,SrMoO3,67.94623090034395,5.659054699524615,Cubic,Pm-3m,221.0,m-3m,0.1,1.16.2,mp-18747,-7.989233433999999,-2.514191494583333,,,"['icsd-174207', 'icsd-71994', 'icsd-174206', 'icsd-187482', 'icsd-174208']"
10.0,3.0,SrTcN3,153.292862646688,4.93180533846463,Orthorhombic,C222_1,20.0,222,0.1,1.16.2,mp-989586,-7.963560568,-0.5516371333333325,,,
10.0,3.0,SrTcN3,153.35081193079495,4.929941673152915,Orthorhombic,Cmcm,63.0,mmm,0.1,1.16.2,mp-989546,-7.963568952999999,-0.5516455183333321,,,
10.0,3.0,SrTcN3,149.73162118535504,5.049104206342522,Monoclinic,C2/m,12.0,2/m,0.1,1.16.2,mp-989530,-7.974125773999999,-0.5622023393333322,,,
20.0,3.0,SrTcN3,332.2089200514949,4.551416369146704,Monoclinic,C2/c,15.0,2/m,0.1,1.16.2,mp-989627,-7.983468363,-0.5715449283333328,15.169619823333335,6.842312826666667,
20.0,3.0,SrTcO3,248.55721198037097,6.242943339731504,Orthorhombic,Pnma,62.0,mmm,0.1,1.16.2,mp-1188414,-7.8343585495,-2.4563188430833334,,,['icsd-183450']
10.0,3.0,SrTcO3,125.55473589302032,6.1794904829286885,Orthorhombic,Imma,74.0,mmm,0.1,1.16.2,mp-1079334,-7.832268012,-2.454228305583334,,,"['icsd-183451', 'icsd-236759']"
5.0,3.0,SrTcO3,62.21175901326076,6.235672386085119,Cubic,Pm-3m,221.0,m-3m,0.1,1.16.2,mp-12631,-7.832244516,-2.4542048095833335,,,"['icsd-109076', 'icsd-183453', 'icsd-183452']"
5.0,3.0,SrRuO3,63.39114104699642,6.2000777429113105,Cubic,Pm-3m,221.0,m-3m,0.1,1.16.2,mp-4346,-7.3114153680000005,-2.1506229425833334,,,"['icsd-261370', 'icsd-82982', 'icsd-86941', 'icsd-69360', 'icsd-82983', 'icsd-82984', 'icsd-162777', 'icsd-187484', 'icsd-157118', 'icsd-82981']"
10.0,3.0,SrRuO3,121.67083063950935,6.460546059190099,Orthorhombic,Imma,74.0,mmm,0.1,1.16.2,mp-34212,-7.347824645999999,-2.1870322205833324,,,
20.0,3.0,SrRuO3,243.42479049130682,6.458339792097221,Orthorhombic,Pnma,62.0,mmm,0.1,1.16.2,mp-22390,-7.352754366000001,-2.191961940583334,,,"['icsd-247468', 'icsd-157117', 'icsd-190462', 'icsd-157113', 'icsd-75561', 'icsd-180908', 'icsd-82978', 'icsd-65691', 'icsd-154896', 'icsd-84279', 'icsd-190463', 'icsd-154894', 'icsd-78627', 'icsd-97368', 'icsd-78628', 'icsd-190464', 'icsd-86939', 'icsd-193855', 'icsd-78317', 'icsd-154895', 'icsd-180907', 'icsd-157116', 'icsd-82977', 'icsd-56697', 'icsd-180909']"
20.0,3.0,SrRuO3,353.5414934632131,4.446776516704734,Orthorhombic,Pnma,62.0,mmm,0.1,1.16.2,mp-611033,-6.8430263375,-1.6822339120833327,,,['icsd-261369']
20.0,3.0,SrRuO3,386.9285364843332,4.0630758979354615,Orthorhombic,Pnma,62.0,mmm,0.1,1.16.2,mp-1179112,-6.8561200505,-1.6953276250833333,,,
10.0,3.0,SrRuO3,124.54563470890515,6.311421570444362,Orthorhombic,Cmcm,63.0,mmm,0.1,1.16.2,mp-1079352,-7.309746427,-2.1489540015833333,,,['icsd-180910']
10.0,3.0,SrRuO3,121.7170792137346,6.458091259535982,Tetragonal,I4/mcm,140.0,4/mmm,0.1,1.16.2,mp-4525,-7.342385074000001,-2.181592648583334,,,['icsd-86940']
20.0,3.0,SrRuO3,3116.7945187666323,0.5044028412354403,Orthorhombic,Pnma,62.0,mmm,0.1,1.16.2,mp-1192792,-3.1924812135,1.9683112119166668,,,"['icsd-82977', 'icsd-82978']"
5.0,3.0,SrRuO3,89.21277546643073,4.405534976894925,Tetragonal,P4/mmm,123.0,4/mmm,0.1,1.16.2,mp-22534,-6.84201519,-1.6812227645833324,,,
20.0,3.0,SrRhO3,243.5485698025016,6.505115960749281,Orthorhombic,Pnma,62.0,mmm,0.1,1.16.2,mp-1208626,-6.795857150000001,-2.017083658583334,,,
10.0,3.0,SrRhO3,121.7055259194724,6.508791103241229,Orthorhombic,Imma,74.0,mmm,0.1,1.16.2,mp-1206846,-6.78409905,-2.0053255585833343,,,
10.0,3.0,SrRhO3,126.55303029275241,6.259477489298199,Tetragonal,I4/mcm,140.0,4/mmm,0.1,1.16.2,mp-1206840,-6.771267952,-1.9924944605833332,,,
5.0,3.0,SrRhO3,64.21547336522843,6.167951451627042,Cubic,Pm-3m,221.0,m-3m,0.1,1.16.2,mp-1017441,-6.709019372,-1.930245880583334,,,['icsd-187483']
5.0,3.0,SrH3Pd,56.10240616351812,5.83276536784657,Cubic,Pm-3m,221.0,m-3m,0.1,1.16.2,mp-1207079,-3.926642214,-0.5171315343333334,,,
5.0,3.0,SrPdO3,65.91341396431488,6.09760384930354,Cubic,Pm-3m,221.0,m-3m,0.1,1.16.2,mp-1187190,-6.020320384,-1.6784321045833337,,,
5.0,3.0,SrAgO3,69.43909948075958,5.8226371368457075,Cubic,Pm-3m,221.0,m-3m,0.1,1.16.2,mp-979294,-5.262007024,-1.3895839059166668,,,
5.0,3.0,SrInO3,74.85410238575706,5.555595225065164,Cubic,Pm-3m,221.0,m-3m,0.1,1.16.2,mp-972021,-5.974557026,-2.1183083625833334,,,
10.0,3.0,SrSnO3,133.32770579400238,6.335096060087697,Orthorhombic,Imma,74.0,mmm,0.1,1.16.2,mp-12866,-6.740627184,-2.632800895583334,,,['icsd-153531']
20.0,3.0,SrSnO3,266.2174999396318,6.345516909051056,Orthorhombic,Pnma,62.0,mmm,0.1,1.16.2,mp-2879,-6.7465352295,-2.638708941083334,17.806729703333335,4.522736623333333,"['icsd-90846', 'icsd-161783', 'icsd-424825', 'icsd-262981', 'icsd-238971', 'icsd-97432', 'icsd-190602', 'icsd-59161', 'icsd-188140', 'icsd-90845', 'icsd-238970', 'icsd-261492', 'icsd-261491', 'icsd-153530']"
5.0,3.0,SrSnO3,69.67305836625314,6.061480890045354,Cubic,Pm-3m,221.0,m-3m,0.1,1.16.2,mp-546973,-6.698800456000001,-2.5909741675833344,,,"['icsd-181089', 'icsd-27047']"
10.0,3.0,SrSnO3,132.9109082147505,6.354962395647653,Tetragonal,I4/mcm,140.0,4/mmm,0.1,1.16.2,mp-12867,-6.7350608649999995,-2.6272345765833336,21.419068846696423,4.511725446666667,['icsd-153532']
20.0,3.0,SrSnS3,459.3685815383808,4.374305090181207,Orthorhombic,Pnma,62.0,mmm,0.1,1.16.2,mp-1205419,-5.0007033915,-1.379020409708334,,,['icsd-651032']
5.0,3.0,SrSbO3,74.54787045732388,5.733048487761328,Cubic,Pm-3m,221.0,m-3m,0.1,1.16.2,mp-1187192,-6.5086687659999996,-2.3769566005833327,,,
80.0,3.0,SrSbSe3,2247.1917757468314,5.276147211705713,Orthorhombic,P2_12_12_1,19.0,222,0.1,1.16.2,mp-1204655,-4.50531472275,-1.2440688974895828,,,['icsd-604143']
5.0,3.0,CsSrO3,119.7970554328997,3.7220782487078896,Cubic,Pm-3m,221.0,m-3m,0.1,1.16.2,mp-1183972,-4.870726622,-1.3857342301695403,,,
5.0,3.0,CsSrF3,108.0710349506573,4.264175876726179,Cubic,Pm-3m,221.0,m-3m,0.1,1.16.2,mp-8397,-5.337036404,-3.67316985841954,84.95816827666671,2.1972820599999987,['icsd-49578']
5.0,3.0,CsSrCl3,182.55680856735304,2.9733451570710097,Cubic,Pm-3m,221.0,m-3m,0.1,1.16.2,mp-1213642,-4.27827622,-2.65217505891954,,,
20.0,3.0,CsSrCl3,712.4138479474693,3.0476914743190275,Orthorhombic,Pnma,62.0,mmm,0.1,1.16.2,mp-1213084,-4.291098755999999,-2.66499759491954,8.677287536666666,2.54312341,
5.0,3.0,CsSrCl3,182.76182731550747,2.9700097149226807,Monoclinic,Cm,8.0,m,0.1,1.16.2,mp-1080233,-4.278201812,-2.65210065091954,,,
10.0,3.0,CsSrCl3,356.3685601129984,3.0463091495611425,Tetragonal,P4/mbm,127.0,4/mmm,0.1,1.16.2,mp-1213645,-4.281499447,-2.6553982859195395,,,
10.0,3.0,CsSrCl3,360.0128133440407,3.0154726861088466,Trigonal,R3c,161.0,3m,0.1,1.16.2,mp-998561,-4.287534933,-2.66143377191954,9.188295136665484,2.534576486666667,
5.0,3.0,CsSrBr3,212.8528132518763,3.590472952255666,Monoclinic,Cm,8.0,m,0.1,1.16.2,mp-998297,-3.830314646,-2.38151848291954,,,
20.0,3.0,CsSrBr3,823.8124854574991,3.710758369329502,Orthorhombic,Pnma,62.0,mmm,0.1,1.16.2,mp-1213104,-3.849744316,-2.4009481529195407,8.47968668,2.7893638700000003,
10.0,3.0,CsSrBr3,397.1752980366084,3.8483877147966368,Orthorhombic,Cmcm,63.0,mmm,0.1,1.16.2,mp-998433,-3.844239462,-2.3954432989195404,,,
10.0,3.0,CsSrI3,489.16953033220125,4.081941153877918,Orthorhombic,Cmcm,63.0,mmm,0.1,1.16.2,mp-1080232,-3.3254363419999997,-1.9244373669195398,7.012998733983449,3.2230356127970787,
5.0,3.0,CsSrI3,270.812173687388,3.6866164653866442,Monoclinic,Cm,8.0,m,0.1,1.16.2,mp-998417,-3.293743324,-1.8927443489195397,,,
20.0,3.0,SrCeO3,318.88019245785824,5.743441228739315,Orthorhombic,Pnma,62.0,mmm,0.1,1.16.2,mp-22428,-8.108783837999999,-3.6162540895833333,,,"['icsd-79003', 'icsd-152666', 'icsd-71352', 'icsd-154927', 'icsd-78536', 'icsd-152667', 'icsd-80271', 'icsd-238833', 'icsd-237180', 'icsd-152665', 'icsd-154925', 'icsd-154924', 'icsd-154926', 'icsd-152664']"
20.0,3.0,SrPrO3,351.1605864581457,5.230450051142066,Orthorhombic,Pnma,62.0,mmm,0.1,1.16.2,mp-20464,-7.262379620500001,-3.0002865520833337,,,"['icsd-84882', 'icsd-85816']"
5.0,3.0,SrNdO3,90.91035675028431,5.111835569658964,Cubic,Pm-3m,221.0,m-3m,0.1,1.16.2,mp-1101333,-7.070098142000001,-2.8105567380833336,,,
5.0,3.0,SrEuO3,84.23687860562264,5.669031021371436,Cubic,Pm-3m,221.0,m-3m,0.1,1.16.2,mp-1100775,-8.043778978,-2.686466700583334,,,
20.0,3.0,SrTbO3,323.7983001948792,6.042046191047738,Orthorhombic,Pnma,62.0,mmm,0.1,1.16.2,mp-21898,-7.380450356,-3.147665218583333,,,"['icsd-86734', 'icsd-89027', 'icsd-89026', 'icsd-86735']"
5.0,3.0,SrDyO3,83.6217141622725,5.919956586919827,Cubic,Pm-3m,221.0,m-3m,0.1,1.16.2,mp-1187145,-7.257123011999999,-3.029853726583333,,,
5.0,3.0,SrHoO3,82.61883275427296,6.040663396361041,Cubic,Pm-3m,221.0,m-3m,0.1,1.16.2,mp-971996,-7.280823688,-3.058429996583333,,,
5.0,3.0,SrErO3,81.45420436686246,6.174505378718418,Cubic,Pm-3m,221.0,m-3m,0.1,1.16.2,mp-1187147,-7.304388106,-3.0849324265833338,,,
5.0,3.0,SrTmO3,80.4155987800097,6.28884423301585,Cubic,Pm-3m,221.0,m-3m,0.1,1.16.2,mp-1186758,-7.323091074,-3.1220120719166666,,,
5.0,3.0,SrYbO3,80.39100889342019,6.375576154367508,Cubic,Pm-3m,221.0,m-3m,0.1,1.16.2,mp-1186756,-6.003040478,-2.3892069045833333,,,
10.0,3.0,SrHfO3,136.00212319147215,7.6703058011099,Tetragonal,P4/mbm,127.0,4/mmm,0.1,1.16.2,mp-550908,-9.09819543,-3.8008457065833334,,,['icsd-161595']
20.0,3.0,SrHfO3,270.9121553948899,7.701226052099758,Orthorhombic,Pnma,62.0,mmm,0.1,1.16.2,mp-3378,-9.111064951,-3.8137152275833337,32.66451275666666,4.36467381,"['icsd-84280', 'icsd-187358', 'icsd-184997', 'icsd-162930', 'icsd-86830', 'icsd-89383', 'icsd-161599', 'icsd-164623', 'icsd-162906']"
5.0,3.0,SrHfO3,71.01997313864919,7.34425703345636,Cubic,Pm-3m,221.0,m-3m,0.1,1.16.2,mp-4551,-9.078107392,-3.780757668583333,,,"['icsd-89386', 'icsd-161593', 'icsd-29154', 'icsd-164620', 'icsd-184791']"
5.0,3.0,SrHfO3,71.00848373784919,7.345445357839503,Tetragonal,P4mm,99.0,4mm,0.1,1.16.2,mp-13108,-9.078168534,-3.780818810583333,246.35700598000003,4.3504139833333335,['icsd-161594']
10.0,3.0,SrHfO3,135.63234605846927,7.691217506693517,Orthorhombic,Imma,74.0,mmm,0.1,1.16.2,mp-13109,-9.108384599,-3.8110348755833336,36.87385470667527,4.3562849333333205,['icsd-161597']
10.0,3.0,SrHfO3,135.60049749179666,7.69302394736362,Tetragonal,I4/mcm,140.0,4/mmm,0.1,1.16.2,mp-3721,-9.105002858999999,-3.807653135583333,,,"['icsd-89385', 'icsd-164621', 'icsd-161598']"
20.0,3.0,SrHfO3,271.36984791729213,7.688237160355052,Orthorhombic,Cmcm,63.0,mmm,0.1,1.16.2,mp-4673,-9.106615399999999,-3.8092656765833333,,,"['icsd-164622', 'icsd-89384', 'icsd-161596']"
20.0,3.0,SrHfS3,464.28014399911604,5.183263719549966,Orthorhombic,Pnma,62.0,mmm,0.1,1.16.2,mp-1208643,-6.9241553385,-2.112948921708334,45.04933183000001,8.214833896666667,['icsd-638863']
5.0,3.0,SrTaO3,67.26411512562386,7.815019078429382,Cubic,Pm-3m,221.0,m-3m,0.1,1.16.2,mp-1186755,-8.959535526,-3.282068082583334,,,
10.0,3.0,SrWN3,152.79145926957835,6.813809556373789,Monoclinic,C2/m,12.0,2/m,0.1,1.16.2,mp-989513,-8.785319286,-0.8538975943333327,,,
10.0,3.0,SrWN3,144.6505729883572,7.197288498726832,Triclinic,P1,1.0,1,0.1,1.16.2,mp-989625,-8.788762037,-0.8573403453333327,17.99569489,8.14019651,
5.0,3.0,SrWO3,68.98501547948386,7.689681846972675,Cubic,Pm-3m,221.0,m-3m,0.1,1.16.2,mp-1186764,-8.354587706,-2.4570497425833344,,,
20.0,3.0,SrReN3,340.57102630398566,6.1599655650587435,Monoclinic,C2/c,15.0,2/m,0.1,1.16.2,mp-989623,-8.5572458865,-0.7285448038333342,12.85098105,5.926700643333334,
5.0,3.0,SrReO3,63.851842473577,8.369426730912323,Cubic,Pm-3m,221.0,m-3m,0.1,1.16.2,mp-1187226,-8.19681131,-2.4019939555833334,,,
5.0,3.0,SrOsO3,63.63388435567394,8.503074601842126,Cubic,Pm-3m,221.0,m-3m,0.1,1.16.2,mp-867195,-7.619098773999999,-2.0677133705833333,,,
20.0,3.0,SrOsO3,251.60559242284313,8.602092833802455,Orthorhombic,Pnma,62.0,mmm,0.1,1.16.2,mp-1105153,-7.6549400565,-2.1035546530833336,,,"['icsd-239450', 'icsd-237731', 'icsd-237732', 'icsd-239451']"
20.0,3.0,SrIrO3,254.9461238569644,8.541148204505298,Orthorhombic,Pnma,62.0,mmm,0.1,1.16.2,mp-1105160,-7.081156114,-2.007557360583333,,,['icsd-196446']
30.0,3.0,SrIrO3,384.2771400263827,8.499852324849448,Monoclinic,C2/c,15.0,2/m,0.1,1.16.2,mp-1193907,-7.105362223666668,-2.0317634702500005,,,['icsd-187813']
5.0,3.0,SrIrO3,63.90634971621028,8.518451756735805,Cubic,Pm-3m,221.0,m-3m,0.1,1.16.2,mp-1016848,-6.967076222,-1.8934774685833333,,,
30.0,3.0,SrIrO3,384.24436696692544,8.500577296220712,Orthorhombic,Cmcm,63.0,mmm,0.1,1.16.2,mp-17097,-7.08952906,-2.0159303065833334,,,
5.0,3.0,SrPtO3,67.0436533800309,8.19084126274852,Cubic,Pm-3m,221.0,m-3m,0.1,1.16.2,mp-1187202,-6.2217723419999995,-1.701633760583333,,,
5.0,3.0,SrAuO3,70.7442566555607,7.806570144195962,Cubic,Pm-3m,221.0,m-3m,0.1,1.16.2,mp-1187146,-5.382753778,-1.4220654605833332,,,
5.0,3.0,SrTlO3,78.3784643099874,7.2033278327533825,Cubic,Pm-3m,221.0,m-3m,0.1,1.16.2,mp-981367,-5.40582679,-1.6273862432499997,,,
20.0,3.0,SrPbO3,296.90377048683945,7.669326838228552,Orthorhombic,Pnma,62.0,mmm,0.1,1.16.2,mp-20489,-6.2053422304999994,-2.1569008990833334,25.724617093333325,6.739796036666665,"['icsd-78682', 'icsd-4121']"
20.0,3.0,SrBiO3,311.1958717643233,7.355103194029816,Monoclinic,P2_1/c,14.0,2/m,0.1,1.16.2,mp-29164,-6.345887718,-2.271877974583334,33.58090767666667,9.384626890000002,['icsd-85173']
80.0,3.0,SrBiSe3,2327.158785571961,6.090620380234483,Orthorhombic,P2_12_12_1,19.0,222,0.1,1.16.2,mp-28476,-4.5096661205,-1.306122717239584,,,['icsd-61153']
5.0,3.0,SrPuO3,83.05762881533012,7.589559929454946,Cubic,Pm-3m,221.0,m-3m,0.1,1.16.2,mp-1207172,-9.490294574,-3.3308149905833337,,,
100.0,2.0,Y2O3,1613.1265832460754,4.6489365988935525,Triclinic,P1,1.0,1,0.1,1.16.2,mp-1245017,-9.2864530887,-3.7318514166166663,,,
20.0,2.0,Y2O3,262.78820725029044,5.707503612868075,Orthorhombic,Pnma,62.0,mmm,0.1,1.16.2,mp-1178770,-9.4032046955,-3.848603023416666,,,['icsd-181828']
100.0,2.0,Y2O3,1594.0088459517644,4.704693597244767,Triclinic,P1,1.0,1,0.1,1.16.2,mp-1244888,-9.2838733891,-3.7292717170166667,,,
30.0,2.0,Y2O3,419.4707436136238,5.3634180636028645,Monoclinic,P2_1/m,11.0,2/m,0.1,1.16.2,mp-775907,-9.473733072666667,-3.9191314005833324,,,
10.0,2.0,Y2O3,145.46822333408633,5.155299927103416,Trigonal,R-3c,167.0,-3m,0.1,1.16.2,mp-754759,-9.474792809,-3.9201911369166664,,,
100.0,2.0,Y2O3,1589.4344044151576,4.718233851405909,Triclinic,P1,1.0,1,0.1,1.16.2,mp-1245291,-9.265141319000001,-3.7105396469166667,,,
15.0,2.0,Y2O3,206.11596912407475,5.457599847821435,Monoclinic,C2/m,12.0,2/m,0.1,1.16.2,mp-558573,-9.478150402666666,-3.923548730583332,,,"['icsd-181826', 'icsd-160219', 'icsd-192863', 'icsd-647650']"
100.0,2.0,Y2O3,1587.3522748079604,4.724422757644054,Triclinic,P1,1.0,1,0.1,1.16.2,mp-1244949,-9.3003276424,-3.7457259703166663,,,
20.0,2.0,Y2O3,282.35180668401375,5.312041951899708,Monoclinic,P2_1/m,11.0,2/m,0.1,1.16.2,mp-777514,-9.4360588085,-3.8814571364166666,,,
40.0,2.0,Y2O3,571.7217510214897,5.2468342847560505,Orthorhombic,Pbca,61.0,mmm,0.1,1.16.2,mp-775906,-9.46346203725,-3.908860365166666,,,
40.0,2.0,Y2O3,596.8276909170065,5.026122832858722,Cubic,Ia-3,206.0,m-3,0.1,1.16.2,mp-2652,-9.52628512575,-3.9716834536666665,,,"['icsd-155173', 'icsd-193376', 'icsd-290961', 'icsd-66242', 'icsd-86815', 'icsd-181825', 'icsd-193374', 'icsd-77081', 'icsd-290964', 'icsd-151760', 'icsd-153500', 'icsd-186675', 'icsd-86814', 'icsd-66730', 'icsd-290965', 'icsd-290960', 'icsd-193042', 'icsd-647653', 'icsd-26190', 'icsd-237970', 'icsd-290963', 'icsd-86817', 'icsd-290962', 'icsd-82420', 'icsd-78581', 'icsd-187274', 'icsd-185295', 'icsd-151761', 'icsd-181871', 'icsd-81861', 'icsd-193377', 'icsd-16394', 'icsd-184530', 'icsd-160890', 'icsd-23811', 'icsd-41267', 'icsd-27772', 'icsd-86813', 'icsd-193375', 'icsd-80033', 'icsd-192862', 'icsd-85355', 'icsd-66243', 'icsd-41936']"
5.0,2.0,Y2O3,80.50603006525942,4.65761583661604,Tetragonal,P-4m2,115.0,-42m,0.1,1.16.2,mp-1216050,-9.262773511999999,-3.708171839916666,,,
10.0,2.0,Y2O3,148.26393649585364,5.058089909619062,Cubic,Pn-3m,224.0,m-3m,0.1,1.16.2,mp-673247,-9.033411445999999,-3.478809773916666,,,
5.0,2.0,Y2O3,67.60292018792852,5.546597092739123,Trigonal,P-3m1,164.0,-3m,0.1,1.16.2,mp-13061,-9.454078066,-3.899476393916666,,,"['icsd-192864', 'icsd-160204', 'icsd-181827']"
20.0,2.0,Y2S3,432.2172865284038,4.210834171069141,Orthorhombic,Pnma,62.0,mmm,0.1,1.16.2,mp-1188645,-7.434440575000001,-2.3659822095416674,,,['icsd-651407']
30.0,2.0,Y2S3,717.4624790592753,3.8050672458027317,Monoclinic,P2_1/m,11.0,2/m,0.1,1.16.2,mp-541289,-7.444498669,-2.3760403035416666,,,"['icsd-67502', 'icsd-651408', 'icsd-651399']"
40.0,2.0,Y2S3,870.8137239135814,4.179987681547378,Tetragonal,I-42d,122.0,-42m,0.1,1.16.2,mp-32891,-7.40878281225,-2.3403244467916666,,,