nsites,nelements,formula_pretty,volume,density,crystal_system,symbol,number,point_group,symprec,version,material_id,energy_per_atom,formation_energy_per_atom,e_total,e_electronic,icsd
20.0,3.0,ScBiO3,268.2267728755639,7.47686813446329,Orthorhombic,Pnma,62.0,mmm,0.1,1.16.2,mp-756205,-7.7863500525000005,-2.7837451787500007,,,
20.0,3.0,ScBiO3,282.41902134716827,7.101137173256954,Monoclinic,Cc,9.0,m,0.1,1.16.2,mp-555313,-7.784773459999999,-2.7821685862499996,341.22885370720076,5.7917334033333345,['icsd-171385']
5.0,3.0,ScBiO3,67.7074343450527,7.405007405474687,Cubic,Pm-3m,221.0,m-3m,0.1,1.16.2,mp-550008,-7.461491168,-2.458886294250001,,,"['icsd-158759', 'icsd-181118', 'icsd-181115', 'icsd-181119', 'icsd-181116', 'icsd-181120', 'icsd-181117']"
10.0,3.0,ScBiO3,141.88024260616115,7.067566893334792,Trigonal,R-3,148.0,-3,0.1,1.16.2,mp-1101383,-7.744921897999999,-2.74231702425,,,
5.0,3.0,AcScO3,70.19180130743561,7.569207408829243,Cubic,Pm-3m,221.0,m-3m,0.1,1.16.2,mp-1183152,-8.888565856,-3.8298238067499994,,,
10.0,3.0,ScUS3,211.8109622321524,5.945328806988968,Orthorhombic,Cmcm,63.0,mmm,0.1,1.16.2,mp-7276,-7.974184418,-1.9675386748750001,,,"['icsd-2239', 'icsd-291232']"
10.0,2.0,Ti2H3,82.71938043568267,3.965001124972398,Tetragonal,P4_2/mcm,132.0,4/mmm,0.1,1.16.2,mp-1079127,-5.7272847659999995,-0.5334523323333329,,,['icsd-168327']
10.0,2.0,Ti2O3,110.04731762125846,4.337641995960086,Monoclinic,P2_1/m,11.0,2/m,0.1,1.16.2,mp-1101295,-9.333990865,-3.207780831583334,,,
10.0,2.0,Ti2O3,103.7211155286214,4.602205288902889,Trigonal,R-3c,167.0,-3m,0.1,1.16.2,mp-458,-9.430413044,-3.3042030105833335,,,"['icsd-9646', 'icsd-9654', 'icsd-77696', 'icsd-9648', 'icsd-647550', 'icsd-1462', 'icsd-9655', 'icsd-9658', 'icsd-9656', 'icsd-9647', 'icsd-28353', 'icsd-9657', 'icsd-29286', 'icsd-647544', 'icsd-28354', 'icsd-54175', 'icsd-25779', 'icsd-6095', 'icsd-647561', 'icsd-33640']"
20.0,2.0,Ti2O3,180.974229898941,5.275291036997773,Orthorhombic,Pnma,62.0,mmm,0.1,1.16.2,mp-1188323,-9.4059566145,-3.2797465810833346,,,['icsd-187466']
20.0,2.0,Ti2O3,229.72425230395382,4.15581604179206,Orthorhombic,Cmcm,63.0,mmm,0.1,1.16.2,mp-1046793,-9.300624135,-3.1744141015833334,,,
30.0,2.0,Ti2O3,299.87604097284424,4.775431857524981,Monoclinic,P2_1/m,11.0,2/m,0.1,1.16.2,mp-776456,-9.360354688666666,-3.2341446552499993,,,
20.0,2.0,Ti2O3,217.75988736026858,4.384148726776235,Trigonal,P-31c,163.0,-3m,0.1,1.16.2,mp-776655,-9.351441228999999,-3.2252311955833335,,,
10.0,2.0,Ti2O3,135.60687323215848,3.520071328829436,Monoclinic,C2/c,15.0,2/m,0.1,1.16.2,mp-1179268,-9.052125946,-2.9259159125833336,,,
20.0,2.0,Ti2S3,348.86142214986495,3.6542372676169483,Monoclinic,C2/c,15.0,2/m,0.1,1.16.2,mp-1217192,-7.3210469595,-1.6809802327083347,,,
10.0,2.0,Ti2S3,174.70125582799304,3.6485782658284007,Monoclinic,C2/m,12.0,2/m,0.1,1.16.2,mp-1101099,-7.346890647,-1.7068239202083348,,,
20.0,2.0,Ti2Se3,410.3849278642438,5.383419356773262,Trigonal,P-31c,163.0,-3m,0.1,1.16.2,mp-1208273,-6.709594939499999,-1.453851246239583,,,
10.0,3.0,TiVO3,104.65784905784909,4.658575783530177,Trigonal,R-3,148.0,-3,0.1,1.16.2,mp-755657,-9.36486496,-3.0009721159166665,,,
10.0,3.0,TiVO3,103.87320059980844,4.6937662299986105,Trigonal,R3c,161.0,3m,0.1,1.16.2,mp-1216763,-9.345430298,-2.9815374539166677,28.44726867820694,10.021118683190059,
20.0,3.0,TiVO3,216.74951415159728,4.498801513679512,Triclinic,P1,1.0,1,0.1,1.16.2,mp-753428,-9.3057165345,-2.941823690416667,,,
30.0,3.0,TiCrO3,336.02093158065657,4.38418161511454,Triclinic,P1,1.0,1,0.1,1.16.2,mp-756083,-9.248453735333333,-2.770732611250001,,,
20.0,3.0,TiCrO3,210.1702097484956,4.672964172840295,Orthorhombic,Pnma,62.0,mmm,0.1,1.16.2,mp-755606,-9.253288666,-2.7755675419166663,,,
20.0,3.0,TiMnO3,212.50152766807804,4.713654201746586,Orthorhombic,Pnma,62.0,mmm,0.1,1.16.2,mp-556925,-9.274892319,-2.895377630502874,,,"['icsd-158732', 'icsd-184651']"
10.0,3.0,TiMnO3,113.56933258435684,4.409899644458129,Triclinic,P-1,2.0,-1,0.1,1.16.2,mp-743867,-9.134469726,-2.7549550375028744,,,
10.0,3.0,TiMnO3,98.9266567412891,5.06263302412878,Triclinic,P-1,2.0,-1,0.1,1.16.2,mp-697089,-8.471604506999999,-2.092089818502873,,,
10.0,3.0,TiMnO3,113.83843812847203,4.399474971888604,Monoclinic,C2/m,12.0,2/m,0.1,1.16.2,mp-2234285,-9.135411479,-2.7558967905028737,,,
10.0,3.0,TiMnO3,106.62481101239541,4.697118378262631,Trigonal,R3c,161.0,3m,0.1,1.16.2,mp-19376,-9.2985630085,-2.9190483200028736,28.285960773982328,5.981673229999995,"['icsd-184650', 'icsd-65359', 'icsd-190911']"
10.0,3.0,TiMnO3,107.83263051258717,4.644506556173096,Trigonal,R-3,148.0,-3,0.1,1.16.2,mp-19082,-9.334882121,-2.955367432502874,23.568827869960998,5.821117946666669,"['icsd-44407', 'icsd-184649', 'icsd-247553', 'icsd-171579', 'icsd-60006']"
10.0,3.0,TiFeO3,102.29482436671371,4.925385335207109,Trigonal,R3c,161.0,3m,0.1,1.16.2,mp-19270,-8.939818291,-2.6987024189166666,24.128987145253078,6.053131896666671,"['icsd-79278', 'icsd-246515']"
20.0,3.0,TiFeO3,219.16653632662977,4.597795231408048,Triclinic,P-1,2.0,-1,0.1,1.16.2,mp-1277107,-8.971592041,-2.730476168916666,,,
10.0,3.0,TiFeO3,102.67577859097742,4.907110856305436,Trigonal,R-3,148.0,-3,0.1,1.16.2,mp-19417,-8.959550826000001,-2.718434953916667,22.202794016826406,5.819882150000002,"['icsd-29209', 'icsd-153673', 'icsd-30673', 'icsd-9805', 'icsd-43466', 'icsd-30666', 'icsd-153491', 'icsd-24790', 'icsd-247547', 'icsd-153493', 'icsd-153492', 'icsd-30669', 'icsd-30672', 'icsd-30668', 'icsd-153674', 'icsd-30671', 'icsd-30667', 'icsd-187688', 'icsd-30665', 'icsd-153494', 'icsd-30670', 'icsd-67046', 'icsd-30664']"
10.0,3.0,TiFeO3,101.6130315680444,4.958433185471933,Orthorhombic,Cmcm,63.0,mmm,0.1,1.16.2,mp-19074,-8.848473615,-2.6073577429166668,,,['icsd-246516']
10.0,3.0,TiFeO3,161.9896577618398,3.110330836948588,Triclinic,P-1,2.0,-1,0.1,1.16.2,mp-1179354,-8.896343262,-2.655227389916667,,,
20.0,3.0,TiFeO3,208.77156595728877,4.826724611592713,Orthorhombic,Pnma,62.0,mmm,0.1,1.16.2,mp-20073,-8.899765687999999,-2.658649815916666,,,['icsd-246514']
80.0,3.0,TiFeO3,868.1009408044887,4.643159836564419,Triclinic,P1,1.0,1,0.1,1.16.2,mp-694948,-8.690924784749999,-2.4498089126666662,,,
10.0,3.0,TiCoO3,168.77986080467417,3.0459650946383454,Triclinic,P-1,2.0,-1,0.1,1.16.2,mp-1179381,-8.470397449,-2.501622259916666,,,
10.0,3.0,TiCoO3,102.011734456397,5.039592429522875,Trigonal,R-3,148.0,-3,0.1,1.16.2,mp-19424,-8.5965849335,-2.627809744416667,,,"['icsd-38158', 'icsd-16548', 'icsd-48107']"
40.0,3.0,TiNiO3,414.1901770745118,4.957154613212025,Triclinic,P1,1.0,1,0.1,1.16.2,mp-675030,-8.2803009785,-2.5771620124166668,,,
60.0,3.0,TiNiO3,624.0954126779501,4.934833773785957,Triclinic,P1,1.0,1,0.1,1.16.2,mp-531689,-8.284679899833334,-2.58154093375,,,
30.0,3.0,TiNiO3,300.53728897985826,5.123835266835122,Triclinic,P1,1.0,1,0.1,1.16.2,mp-690546,-8.282212310666667,-2.5790733445833327,,,
10.0,3.0,TiNiO3,100.00880325404562,5.132560035281104,Trigonal,R3c,161.0,3m,0.1,1.16.2,mp-850194,-8.286667864,-2.583528897916667,23.154414676585503,5.91086004,
10.0,3.0,TiNiO3,100.19293107218304,5.123127762259021,Trigonal,R-3,148.0,-3,0.1,1.16.2,mp-18732,-8.300620009,-2.597481042916666,20.367081129391455,5.823616056728852,"['icsd-33856', 'icsd-33854', 'icsd-171584', 'icsd-33855', 'icsd-15988', 'icsd-38157']"
50.0,3.0,TiNiO3,516.7503733668699,4.966626181744278,Triclinic,P1,1.0,1,0.1,1.16.2,mp-698587,-8.280607195,-2.577468228916666,,,
5.0,3.0,TiCuO3,57.101005279421834,4.635794483096115,Cubic,Pm-3m,221.0,m-3m,0.1,1.16.2,mp-1187469,-7.303850848000001,-1.9368978839166673,,,
5.0,3.0,TiCuO3,60.86474174556893,4.349127551713586,Tetragonal,P4/mmm,123.0,4/mmm,0.1,1.16.2,mp-1147748,-7.5964208499999994,-2.229467885916667,,,
5.0,3.0,TiZnO3,56.759817119617246,4.71816371378167,Cubic,Pm-3m,221.0,m-3m,0.1,1.16.2,mp-1016927,-7.083898968,-2.2848386159166667,,,
10.0,3.0,TiZnO3,148.20580247472665,3.613922060579641,Triclinic,P-1,2.0,-1,0.1,1.16.2,mp-635713,-7.525225238999999,-2.726164886916666,,,
20.0,3.0,TiZnO3,205.80190054063337,5.205046383559263,Orthorhombic,Pnma,62.0,mmm,0.1,1.16.2,mp-1343137,-7.516832013,-2.7177716609166667,,,
10.0,3.0,TiZnO3,106.96230133551445,5.0074111381473045,Trigonal,R-3,148.0,-3,0.1,1.16.2,mp-14142,-7.592381315999999,-2.793320963916666,,,"['icsd-262709', 'icsd-22382']"
10.0,3.0,TiZnO3,106.48434781971152,5.029886833472973,Trigonal,R3c,161.0,3m,0.1,1.16.2,mp-1078470,-7.565642529,-2.7665821769166667,,,['icsd-194214']
10.0,3.0,TiGeO3,142.2873660627807,3.9330191466442272,Trigonal,R-3,148.0,-3,0.1,1.16.2,mp-780260,-8.155536432,-2.6838192309166664,,,
20.0,3.0,TiGeS3,434.35899785867554,3.313776287212382,Orthorhombic,Pnma,62.0,mmm,0.1,1.16.2,mp-1105715,-6.167187987,-1.181614092541667,,,['icsd-263128']
10.0,3.0,RbTiCl3,258.407513700243,3.080567691104508,Hexagonal,P6_3/mmc,194.0,6/mmm,0.1,1.16.2,mp-28282,-4.913430387,-2.0291031731666664,,,['icsd-49747']
10.0,3.0,RbTiBr3,315.61866845293156,3.9253621346704155,Hexagonal,P6_3/mmc,194.0,6/mmm,0.1,1.16.2,mp-569807,-4.444833229,-1.737811013166667,,,['icsd-154257']
30.0,3.0,RbTiI3,1213.1788447065912,4.221622254024274,Hexagonal,P6_3cm,185.0,6mm,0.1,1.16.2,mp-27812,-3.881694807,-1.2224697791666665,,,['icsd-26457']
5.0,3.0,SrTiO3,59.90045030664282,5.086511723754529,Cubic,Pm-3m,221.0,m-3m,0.1,1.16.2,mp-5229,-8.437130902,-3.55212058125,,,"['icsd-192314', 'icsd-181652', 'icsd-65090', 'icsd-182763', 'icsd-94573', 'icsd-65089', 'icsd-80871', 'icsd-56717', 'icsd-248379', 'icsd-191828', 'icsd-76186', 'icsd-80873', 'icsd-248380', 'icsd-91899', 'icsd-23076', 'icsd-187296', 'icsd-201256', 'icsd-187619', 'icsd-182762', 'icsd-186725', 'icsd-290370', 'icsd-80874', 'icsd-65088', 'icsd-80872', 'icsd-170091', 'icsd-290617', 'icsd-186895', 'icsd-56092', 'icsd-184455', 'icsd-262269', 'icsd-187480', 'icsd-184921', 'icsd-56718', 'icsd-27045', 'icsd-182764']"
10.0,3.0,SrTiO3,119.62507795144641,5.093987781835845,Tetragonal,I4/mcm,140.0,4/mmm,0.1,1.16.2,mp-4651,-8.438022916,-3.5530125952500002,7.797491839999125,6.441914423333337,"['icsd-182248', 'icsd-182247']"
30.0,3.0,SrTiO3,381.021066927438,4.797913331143005,Hexagonal,P6_3/mmc,194.0,6/mmm,0.1,1.16.2,mp-776018,-8.398920444666667,-3.5139101239166677,,,
10.0,3.0,SrTiO3,119.78460372892171,5.087203751701338,Tetragonal,I4/mcm,140.0,4/mmm,0.1,1.16.2,mp-551830,-8.437440668,-3.552430347250001,,,
10.0,3.0,SrTiS3,220.75622591753705,3.48544654112479,Hexagonal,P6_3/mmc,194.0,6/mmm,0.1,1.16.2,mp-1080529,-6.239343795,-1.8404767808750002,,,['icsd-651070']
5.0,3.0,YTiO3,59.0010722886116,5.200236792322234,Cubic,Pm-3m,221.0,m-3m,0.1,1.16.2,mp-1436662,-9.207710448,-3.3673045952500003,,,
20.0,3.0,YTiO3,235.49787086691995,5.211419462472947,Orthorhombic,Pnma,62.0,mmm,0.1,1.16.2,mp-4355,-9.452474175499999,-3.6120683227499994,,,"['icsd-174118', 'icsd-84610', 'icsd-84608', 'icsd-84609', 'icsd-20903', 'icsd-8150']"
30.0,3.0,YTiO3,386.4233566548507,4.76399071046448,Hexagonal,P6_3cm,185.0,6mm,0.1,1.16.2,mp-1342458,-9.455553118333333,-3.6151472655833325,,,
10.0,3.0,YTiO3,130.09900526231206,4.716708575643251,Hexagonal,P6_3/mmc,194.0,6/mmm,0.1,1.16.2,mp-1443298,-9.432454660000001,-3.5920488072500008,,,
5.0,3.0,ZrTiO3,57.47219178112415,5.405552075029354,Cubic,Pm-3m,221.0,m-3m,0.1,1.16.2,mp-1183045,-8.98683964,-2.730187883916666,,,
20.0,3.0,TiMoN3,272.76706553673876,4.525079427397709,Triclinic,P-1,2.0,-1,0.1,1.16.2,mp-1246065,-9.618662941,-0.8685375606666668,,,
10.0,3.0,TiMoS3,170.29664917043453,4.680452598492149,Monoclinic,P2_1/m,11.0,2/m,0.1,1.16.2,mp-1216784,-7.598895304,-1.3687969585416666,,,
20.0,3.0,TiCdO3,229.44471704617422,6.029352450479733,Orthorhombic,Pmc2_1,26.0,mm2,0.1,1.16.2,mp-20940,-7.3717698475,-2.6400802654166675,,,['icsd-51698']
5.0,3.0,TiCdO3,68.68324431916595,5.035445983533509,Cubic,Pm-3m,221.0,m-3m,0.1,1.16.2,mp-22345,-5.403051798,-0.6713622159166668,,,['icsd-33667']
5.0,3.0,TiCdO3,58.726787929889916,5.889148358597162,Cubic,Pm-3m,221.0,m-3m,0.1,1.16.2,mp-1016846,-7.213101972,-2.4814123899166667,,,
20.0,3.0,TiCdO3,227.38653800449333,6.083926863535969,Orthorhombic,Pnma,62.0,mmm,0.1,1.16.2,mp-14550,-7.3687953859999995,-2.637105803916666,,,"['icsd-62150', 'icsd-262710']"
10.0,3.0,TiCdO3,277.93610284000755,2.4887070316451982,Triclinic,P1,1.0,1,0.1,1.16.2,mp-1101047,-6.296802834999999,-1.5651132529166667,,,
20.0,3.0,TiCdO3,220.54685782643037,6.2726038385036205,Orthorhombic,Pna2_1,33.0,mm2,0.1,1.16.2,mp-5052,-7.372593440999999,-2.6409038589166665,,,"['icsd-62151', 'icsd-16686', 'icsd-262711']"
10.0,3.0,TiCdO3,119.04414777961351,5.810462306526291,Trigonal,R-3,148.0,-3,0.1,1.16.2,mp-13641,-7.411338015,-2.6796484329166668,23.72799330990199,5.735320673333334,"['icsd-15989', 'icsd-262708', 'icsd-5310']"
10.0,3.0,TiCdO3,195.3942757687807,3.5400296695718607,Triclinic,P-1,2.0,-1,0.1,1.16.2,mp-1179551,-7.245404959,-2.5137153769166667,,,
20.0,3.0,TiCdO3,256.34652840922064,5.396613231147699,Orthorhombic,Pmc2_1,26.0,mm2,0.1,1.16.2,mp-1179263,-7.1912718715,-2.459582289416667,,,
5.0,3.0,TiSnO3,61.66409761506848,5.778248869345959,Cubic,Pm-3m,221.0,m-3m,0.1,1.16.2,mp-1018639,-7.946378162,-2.5973521609166674,,,['icsd-186724']
10.0,3.0,TiSnO3,156.7978330522059,4.544839624216931,Trigonal,R-3,148.0,-3,0.1,1.16.2,mp-754246,-8.104400851,-2.7553748499166666,23.163011146666673,5.4942431900000015,
5.0,3.0,CsTiO3,69.27365160285488,5.48379645047965,Cubic,Pm-3m,221.0,m-3m,0.1,1.16.2,mp-1183977,-7.088216598,-2.3620244935028736,,,
10.0,3.0,CsTiCl3,281.0166852432967,3.393342944862752,Hexagonal,P6_3/mmc,194.0,6/mmm,0.1,1.16.2,mp-28283,-4.924500535,-2.0571996612528736,,,['icsd-49748']
10.0,3.0,CsTiBr3,329.3500476380869,4.240053185266904,Hexagonal,P6_3/mmc,194.0,6/mmm,0.1,1.16.2,mp-22962,-4.453842156,-1.7638462802528738,,,"['icsd-41320', 'icsd-400053']"
10.0,3.0,CsTiI3,414.13939964956404,4.502682960459562,Hexagonal,P6_3/mmc,194.0,6/mmm,0.1,1.16.2,mp-567698,-3.938046944,-1.2958482562528737,,,['icsd-154258']
30.0,3.0,BaTiO3,402.91942798108107,5.76628573211291,Orthorhombic,C222_1,20.0,222,0.1,1.16.2,mp-558125,-8.420601784,-3.4896951659166677,,,['icsd-55221']
30.0,3.0,BaTiO3,400.2367535081449,5.8049355247708965,Hexagonal,P6_3/mmc,194.0,6/mmm,0.1,1.16.2,mp-5933,-8.415504036333335,-3.4845974182500017,,,"['icsd-34619', 'icsd-186528', 'icsd-75240', 'icsd-164386']"
5.0,3.0,BaTiO3,125.85628830095348,3.0767215794609353,Orthorhombic,Amm2,38.0,mm2,0.1,1.16.2,mp-1076932,-7.444891613999999,-2.5139849959166662,,,['icsd-161419']
10.0,3.0,BaTiO3,128.738833485449,6.015663613577288,Cubic,Pm-3m,221.0,m-3m,0.1,1.16.2,mp-2998,-8.409168392,-3.478261773916666,,,"['icsd-252562', 'icsd-67519', 'icsd-27975', 'icsd-27977', 'icsd-29147', 'icsd-27971', 'icsd-31887', 'icsd-28849', 'icsd-185374', 'icsd-27966', 'icsd-27974', 'icsd-29280', 'icsd-28854', 'icsd-27965', 'icsd-29148', 'icsd-31884', 'icsd-28620', 'icsd-27973', 'icsd-29146', 'icsd-28853', 'icsd-28852', 'icsd-190924', 'icsd-290019', 'icsd-31885', 'icsd-27967', 'icsd-27970', 'icsd-31888', 'icsd-99736', 'icsd-31890', 'icsd-95437', 'icsd-186437', 'icsd-56093', 'icsd-27968', 'icsd-27976', 'icsd-27969', 'icsd-67518', 'icsd-43125', 'icsd-28850', 'icsd-187292', 'icsd-187291', 'icsd-28851', 'icsd-31889', 'icsd-28848', 'icsd-166225', 'icsd-31886', 'icsd-27972', 'icsd-100804', 'icsd-154344']"
5.0,3.0,BaTiO3,65.6356490658401,5.89961040436988,Trigonal,R3m,160.0,3m,0.1,1.16.2,mp-5020,-8.423906982,-3.4930003639166665,32.54203093670487,5.5770265,"['icsd-73636', 'icsd-100464', 'icsd-100463', 'icsd-73631', 'icsd-186462', 'icsd-73632', 'icsd-73628', 'icsd-73633', 'icsd-186461', 'icsd-73629', 'icsd-73634', 'icsd-73635', 'icsd-186463', 'icsd-73630', 'icsd-6102']"
5.0,3.0,BaTiO3,85.16422489125648,4.546800709110376,Tetragonal,P4/mmm,123.0,4/mmm,0.1,1.16.2,mp-19990,-6.616488108,-1.6855814899166668,,,['icsd-109327']
5.0,3.0,BaTiO3,65.32709969254628,5.927475120567493,Tetragonal,P4mm,99.0,4mm,0.1,1.16.2,mp-5986,-8.420699606,-3.4897929879166663,11.516125873333335,5.899673870000001,"['icsd-73644', 'icsd-73645', 'icsd-100802', 'icsd-130020', 'icsd-15453', 'icsd-67520', 'icsd-164385', 'icsd-23759', 'icsd-30617', 'icsd-248395', 'icsd-154345', 'icsd-186457', 'icsd-189381', 'icsd-245944', 'icsd-252558', 'icsd-99737', 'icsd-161418', 'icsd-185407', 'icsd-34637', 'icsd-183932', 'icsd-290023', 'icsd-73642', 'icsd-237105', 'icsd-245946', 'icsd-157806', 'icsd-190835', 'icsd-100803', 'icsd-100801', 'icsd-192889', 'icsd-31153', 'icsd-164387', 'icsd-237108', 'icsd-188644', 'icsd-73643', 'icsd-245945', 'icsd-73646', 'icsd-186459', 'icsd-100800', 'icsd-186458', 'icsd-23758', 'icsd-164388', 'icsd-168763', 'icsd-161340', 'icsd-154343', 'icsd-100799', 'icsd-237107', 'icsd-95436']"
5.0,3.0,BaTiO3,85.45832403722468,4.531153196471881,Orthorhombic,Amm2,38.0,mm2,0.1,1.16.2,mp-995191,-6.617292430000001,-1.6863858119166673,,,['icsd-161341']
5.0,3.0,BaTiO3,111.54340845946945,3.4715162776032877,Orthorhombic,Amm2,38.0,mm2,0.1,1.16.2,mp-644497,-7.709675374,-2.7787687559166665,,,"['icsd-154346', 'icsd-161341']"
5.0,3.0,BaTiO3,65.57310741671338,5.905237274567591,Orthorhombic,Amm2,38.0,mm2,0.1,1.16.2,mp-5777,-8.423433802,-3.4925271839166663,12.981833089999995,5.856612196666667,"['icsd-73639', 'icsd-73637', 'icsd-237109', 'icsd-73638', 'icsd-31155', 'icsd-73640', 'icsd-73641', 'icsd-237106', 'icsd-186460']"
5.0,3.0,BaTiO3,100.48917348467371,3.8533977810600533,Cubic,Pm-3m,221.0,m-3m,0.1,1.16.2,mp-504715,-5.346455884,-0.41554926591666685,,,
10.0,3.0,BaTiS3,234.63134508320312,3.9829071196417707,Hexagonal,P6_3/mmc,194.0,6/mmm,0.1,1.16.2,mp-7073,-6.390798784,-1.946035472541667,,,"['icsd-616083', 'icsd-14175', 'icsd-616087', 'icsd-18201']"
10.0,3.0,BaTiSe3,264.7893307600213,5.293796120745721,Hexagonal,P6_3/mmc,194.0,6/mmm,0.1,1.16.2,mp-1079893,-5.830655041,-1.7702147630729166,,,['icsd-616131']
5.0,3.0,LaTiO3,62.049187819988944,6.282852087570259,Cubic,Pm-3m,221.0,m-3m,0.1,1.16.2,mp-8020,-9.13262696,-3.598313908916667,,,['icsd-28908']
20.0,3.0,LaTiO3,250.78714658782192,6.217956135807595,Orthorhombic,Pnma,62.0,mmm,0.1,1.16.2,mp-22013,-9.174762257000001,-3.640449205916667,,,"['icsd-98416', 'icsd-156365', 'icsd-181820', 'icsd-63574', 'icsd-63571', 'icsd-63575', 'icsd-98414', 'icsd-63572', 'icsd-20901', 'icsd-8146', 'icsd-63573', 'icsd-181740']"
20.0,3.0,LaTiS3,403.54764938690994,4.657477640876627,Orthorhombic,Pnma,62.0,mmm,0.1,1.16.2,mp-1211414,-7.125148312,-2.076978567541667,,,
5.0,3.0,CeTiO3,61.288438271041045,6.393636591786039,Cubic,Pm-3m,221.0,m-3m,0.1,1.16.2,mp-754524,-9.23293956,-3.4992100989166666,,,
10.0,3.0,PrTiO3,124.52131208438156,6.314912054071364,Trigonal,R-3c,167.0,-3m,0.1,1.16.2,mp-753948,-9.03430902,-3.531016238916668,,,
5.0,3.0,PrTiO3,61.31381091813314,6.412430763114484,Cubic,Pm-3m,221.0,m-3m,0.1,1.16.2,mp-754696,-8.988493486,-3.485200704916667,,,
20.0,3.0,NdTiO3,248.04775756381775,6.42952614750988,Orthorhombic,Pnma,62.0,mmm,0.1,1.16.2,mp-3119,-9.06843503,-3.5676939134166674,,,"['icsd-8147', 'icsd-82008', 'icsd-82011']"
5.0,3.0,PmTiO3,60.247856910458616,6.638677206043338,Cubic,Pm-3m,221.0,m-3m,0.1,1.16.2,mp-2647018,-8.958279804,-3.4610597094166664,,,
20.0,3.0,SmTiO3,243.42832611817204,6.71847143348329,Orthorhombic,Pnma,62.0,mmm,0.1,1.16.2,mp-22416,-9.083165728,-3.5923368709166668,,,"['icsd-51181', 'icsd-51180', 'icsd-8148']"
5.0,3.0,SmTiO3,59.95041928908818,6.820078468672492,Cubic,Pm-3m,221.0,m-3m,0.1,1.16.2,mp-1099583,-8.935535380000001,-3.444706522916667,,,
5.0,3.0,EuTiO3,59.49625945750218,6.916906578608999,Cubic,Pm-3m,221.0,m-3m,0.1,1.16.2,mp-22246,-10.1548811515,-3.5563691614166673,,,"['icsd-187109', 'icsd-290422', 'icsd-187117', 'icsd-187111', 'icsd-187108', 'icsd-187102', 'icsd-187106', 'icsd-187105', 'icsd-187110', 'icsd-187113', 'icsd-187107', 'icsd-424907', 'icsd-187101', 'icsd-187115', 'icsd-24669', 'icsd-187204', 'icsd-187114', 'icsd-187104', 'icsd-187103', 'icsd-187205']"
10.0,3.0,EuTiO3,118.31253652456533,6.956660393444921,Tetragonal,I4/mcm,140.0,4/mmm,0.1,1.16.2,mp-1079111,-10.164019363,-3.5655073729166675,,,"['icsd-187116', 'icsd-187112']"
20.0,3.0,GdTiO3,239.23081017440822,7.02765129029747,Orthorhombic,Pnma,62.0,mmm,0.1,1.16.2,mp-510278,-10.980702133,-3.618366054916666,,,['icsd-8149']