nsites,nelements,formula_pretty,volume,density,crystal_system,symbol,number,point_group,symprec,version,material_id,energy_per_atom,formation_energy_per_atom,e_total,e_electronic,icsd
20.0,2.0,Sb2S3,515.7079119701428,4.375422722175947,Orthorhombic,Pnma,62.0,mmm,0.1,1.16.2,mp-2809,-4.6845754025,-0.5511049863749996,56.35946631333332,11.21139644,"['icsd-95556', 'icsd-650809', 'icsd-650806', 'icsd-194821', 'icsd-95557', 'icsd-650808', 'icsd-26751', 'icsd-99797', 'icsd-22176', 'icsd-99799', 'icsd-650804', 'icsd-194820', 'icsd-99800', 'icsd-653959', 'icsd-95555', 'icsd-41929', 'icsd-425648', 'icsd-604468', 'icsd-99796', 'icsd-171852', 'icsd-171850', 'icsd-171568', 'icsd-650810', 'icsd-99794', 'icsd-171853', 'icsd-95558', 'icsd-650802', 'icsd-30779', 'icsd-171851', 'icsd-99798', 'icsd-99795']"
20.0,2.0,Sb2S3,530.531444368149,4.253169420951939,Orthorhombic,Pmn2_1,31.0,mm2,0.1,1.16.2,mp-1189633,-4.6839684315,-0.5504980153749998,,,['icsd-85302']
20.0,2.0,Sb2Se3,579.4444338187419,5.506812533083567,Orthorhombic,Pnma,62.0,mmm,0.1,1.16.2,mp-2160,-4.287896815,-0.5387494324062494,63.526114226666664,15.76281988666667,"['icsd-194836', 'icsd-651519', 'icsd-651516', 'icsd-651518', 'icsd-194837', 'icsd-171569', 'icsd-85676', 'icsd-651521', 'icsd-651515', 'icsd-16680', 'icsd-30973']"
20.0,2.0,Sb2Se3,735.2397400908047,4.339933896914323,Orthorhombic,Pnma,62.0,mmm,0.1,1.16.2,mp-672706,-4.1928029945,-0.44365561190624947,,,
20.0,2.0,Sb2Se3,740.3628707038349,4.309902612140854,Orthorhombic,Pnma,62.0,mmm,0.1,1.16.2,mp-1179704,-4.2127137955,-0.4635664129062498,,,
5.0,3.0,CsSbO3,73.8242428170085,6.807856048934401,Cubic,Pm-3m,221.0,m-3m,0.1,1.16.2,mp-1185561,-5.590575104,-1.6176811548362067,,,
20.0,3.0,LaSbSe3,564.4478172687956,5.854880930127979,Orthorhombic,Pnma,62.0,mmm,0.1,1.16.2,mp-1222966,-5.30482389,-1.3942753344062502,,,
20.0,3.0,CeSbO3,331.44056538982215,6.209960621159653,Cubic,Fd-3m,227.0,m-3m,0.1,1.16.2,mp-38685,-7.464110035,-2.4836787292500007,,,
5.0,3.0,NdSbO3,78.48933829513199,6.643062743880359,Cubic,Pm-3m,221.0,m-3m,0.1,1.16.2,mp-1206341,-6.823705786,-2.076262824749999,,,
5.0,3.0,SmSbO3,77.80105459668391,6.832410945909324,Cubic,Pm-3m,221.0,m-3m,0.1,1.16.2,mp-1207179,-6.755500734,-2.0179700322500005,,,
5.0,3.0,EuSbO3,75.0801479185892,7.115493196307717,Cubic,Pm-3m,221.0,m-3m,0.1,1.16.2,mp-976284,-8.157579887999999,-2.31236605325,,,
5.0,3.0,DySbO3,76.65860027562857,7.197205784014324,Cubic,Pm-3m,221.0,m-3m,0.1,1.16.2,mp-1207184,-6.611775036,-1.8966041932500004,,,
5.0,3.0,HoSbO3,76.56503528121013,7.258709678135883,Cubic,Pm-3m,221.0,m-3m,0.1,1.16.2,mp-1207180,-6.577825057999999,-1.8675298092499992,,,
5.0,3.0,ReSbO3,63.548617356216845,9.301447388489194,Cubic,Pm-3m,221.0,m-3m,0.1,1.16.2,mp-974511,-7.417569643999999,-1.1348507322499999,,,
5.0,3.0,SbAuO3,64.11512496108023,9.497927454465973,Cubic,Pm-3m,221.0,m-3m,0.1,1.16.2,mp-1186920,-5.34703573,-0.8984458552500001,,,
20.0,3.0,TlSbO3,362.4069017248385,6.857226771669321,Trigonal,P-31c,163.0,-3m,0.1,1.16.2,mp-557787,-5.981538722,-1.7151966179166664,,,
10.0,3.0,TlSbO3,260.24884551350834,4.774480946960252,Triclinic,P-1,2.0,-1,0.1,1.16.2,mp-1179620,-5.222655056,-0.9563129519166665,,,
20.0,3.0,TlSbO3,410.6713564027069,6.051326127328891,Hexagonal,P6_322,182.0,622,0.1,1.16.2,mp-561465,-5.8467713965,-1.5804292924166667,,,['icsd-10142']
10.0,3.0,TlSbO3,178.47189652307534,6.962178239709538,Trigonal,R-3,148.0,-3,0.1,1.16.2,mp-30058,-5.981317045,-1.7149749409166666,9.311242493467994,4.014928833333333,['icsd-77329']
5.0,3.0,SbPbO3,74.967601732332,8.349657760296937,Cubic,Pm-3m,221.0,m-3m,0.1,1.16.2,mp-1186948,-6.100877602,-1.56453471325,,,
10.0,3.0,BiSbO3,166.76267335128563,7.5425780684696875,Trigonal,R-3,148.0,-3,0.1,1.16.2,mp-755382,-6.191114895,-1.62920359425,,,
20.0,3.0,BiSbS3,527.799868152903,5.372816125138688,Orthorhombic,Pnma,62.0,mmm,0.1,1.16.2,mp-1227486,-4.6809081295,-0.6051401353750002,,,
20.0,3.0,BiSbSe3,594.3850249237373,6.343065923102981,Orthorhombic,Pnma,62.0,mmm,0.1,1.16.2,mp-1227508,-4.290410984,-0.5989660234062505,,,
5.0,3.0,PuSbO3,80.38123021840794,8.547538440992328,Cubic,Pm-3m,221.0,m-3m,0.1,1.16.2,mp-1186801,-8.76589625,-2.1185151092500005,,,
5.0,2.0,Cs2O3,100.02580155610131,5.209578610798437,Cubic,Pm-3m,221.0,m-3m,0.1,1.16.2,mp-1185535,-3.727060392,-0.40088621642241407,,,
20.0,2.0,Cs2O3,483.0414253319752,4.315093894537169,Cubic,I-43d,220.0,-43m,0.1,1.16.2,mp-1213719,-4.3551941005,-1.0290199249224146,,,
10.0,2.0,Cs2S3,351.8730811412738,3.416714592943785,Orthorhombic,Cmc2_1,36.0,mm2,0.1,1.16.2,mp-1079600,-3.9478786740000005,-1.1078478050474143,7.899511059999999,3.5681829099999995,['icsd-14094']
10.0,2.0,Cs2Se3,391.7321954929755,4.261778295418819,Orthorhombic,Cmc2_1,36.0,mm2,0.1,1.16.2,mp-7449,-3.5592087900000005,-1.103500954578664,8.535499103565366,4.791004959999647,['icsd-14095']
5.0,3.0,CsBaO3,127.32547365151035,4.150264786101324,Cubic,Pm-3m,221.0,m-3m,0.1,1.16.2,mp-1183934,-4.842209254,-1.311320564836207,,,
20.0,3.0,CsBaI3,1033.6136394682028,4.183075736046576,Orthorhombic,Pnma,62.0,mmm,0.1,1.16.2,mp-1096925,-3.4022673875000002,-1.9553721150862071,7.790711416666667,3.26500663,
5.0,3.0,CsLaO3,108.21457999119708,4.907430595888201,Cubic,Pm-3m,221.0,m-3m,0.1,1.16.2,mp-1183918,-6.362289472,-2.2279943498362065,,,
5.0,3.0,CsPrO3,107.50687043553488,4.970661286236502,Cubic,Pm-3m,221.0,m-3m,0.1,1.16.2,mp-1183919,-6.231176656000001,-2.1279018038362074,,,
5.0,3.0,CsNdO3,104.99198912886199,5.142459551389267,Cubic,Pm-3m,221.0,m-3m,0.1,1.16.2,mp-1183922,-6.251415182000001,-2.1506919943362073,,,
5.0,3.0,CsSmO3,100.85670052802942,5.454037584460338,Cubic,Pm-3m,221.0,m-3m,0.1,1.16.2,mp-1184022,-6.280498904,-2.1896879758362067,,,
5.0,3.0,CsSmCl3,166.35630620018523,3.889161994881095,Cubic,Pm-3m,221.0,m-3m,0.1,1.16.2,mp-567939,-4.52132734,-2.2894076425862067,,,['icsd-31462']
20.0,3.0,CsSmBr3,780.5992591576994,4.450040041123995,Orthorhombic,Pnma,62.0,mmm,0.1,1.16.2,mp-1213166,-4.0646808624999995,-2.010066163086207,,,
10.0,3.0,CsSmI3,457.4321549214504,4.820661720953512,Orthorhombic,Cmcm,63.0,mmm,0.1,1.16.2,mp-1205876,-3.568075503,-1.561257991586207,,,
5.0,3.0,CsEuO3,97.4962479003604,5.669343712101113,Cubic,Pm-3m,221.0,m-3m,0.1,1.16.2,mp-1185550,-7.175191304,-1.9766972428362082,,,
5.0,3.0,CsEuF3,108.52345886680294,5.230939299561771,Cubic,Pm-3m,221.0,m-3m,0.1,1.16.2,mp-8396,-6.9669941280000005,-3.589625913086208,,,['icsd-49577']
5.0,3.0,CsEuCl3,178.75229994418413,3.6343595497693952,Cubic,Pm-3m,221.0,m-3m,0.1,1.16.2,mp-1068377,-5.944024254,-2.6044214235862073,,,['icsd-31463']
20.0,3.0,CsEuCl3,700.7294922288154,3.7084217835846585,Orthorhombic,Pnma,62.0,mmm,0.1,1.16.2,mp-1213256,-7.0566168775,-3.7170140470862068,,,
20.0,3.0,CsEuBr3,808.6999868930995,4.308584189992555,Orthorhombic,Pnma,62.0,mmm,0.1,1.16.2,mp-638685,-5.513263593,-2.350965760586207,,,['icsd-172982']
5.0,3.0,CsGdO3,93.91437828700504,5.97903494369514,Cubic,Pm-3m,221.0,m-3m,0.1,1.16.2,mp-984082,-8.231932934,-2.2696147848362065,,,
5.0,3.0,CsTbO3,96.95295739897536,5.82034162502607,Cubic,Pm-3m,221.0,m-3m,0.1,1.16.2,mp-1185551,-6.324694138,-2.250727216836207,,,
10.0,3.0,CsDyBr3,368.3057089588313,4.8252493104782195,Tetragonal,P4/mbm,127.0,4/mmm,0.1,1.16.2,mp-1079040,-4.0129571120000005,-1.9807022715862068,,,['icsd-300285']
20.0,3.0,CsDyI3,891.9634533119257,5.034833118694861,Orthorhombic,Pnma,62.0,mmm,0.1,1.16.2,mp-505418,-3.491564266,-1.5071066135862072,,,['icsd-300286']
5.0,3.0,CsTmH3,88.22804230427565,5.737832422131382,Cubic,Pm-3m,221.0,m-3m,0.1,1.16.2,mp-1207081,-3.379162214,-0.26927902791954034,,,
5.0,3.0,CsTmCl3,149.90644647326462,4.521685631042452,Cubic,Pm-3m,221.0,m-3m,0.1,1.16.2,mp-579768,-4.412855599999999,-2.2294860449195397,,,['icsd-31460']
10.0,3.0,CsTmBr3,352.34364854809394,5.104492133590183,Tetragonal,P4/mbm,127.0,4/mmm,0.1,1.16.2,mp-1206103,-3.945766732,-1.93970217491954,,,
20.0,3.0,CsTmI3,880.1065792769832,5.151221761568439,Orthorhombic,Pnma,62.0,mmm,0.1,1.16.2,mp-1213177,-3.406957912,-1.4486905429195402,,,
5.0,3.0,CsYbH3,98.1155750637206,5.229093811412781,Cubic,Pm-3m,221.0,m-3m,0.1,1.16.2,mp-1206323,-2.9945655639999997,-0.4719278065862067,,,
5.0,3.0,CsYbO3,97.41702295090637,6.0332090178039355,Cubic,Pm-3m,221.0,m-3m,0.1,1.16.2,mp-1185564,-5.064260542,-1.6092451848362075,,,
5.0,3.0,CsYbF3,86.71260978619291,6.950282649368024,Cubic,Pm-3m,221.0,m-3m,0.1,1.16.2,mp-8398,-5.524441392,-3.890551881086207,,,['icsd-49579']
5.0,3.0,CsYbCl3,152.39505926755638,4.492584293766577,Cubic,Pm-3m,221.0,m-3m,0.1,1.16.2,mp-1070599,-4.297026958,-2.7009028315862067,,,['icsd-31461']
5.0,3.0,CsYbBr3,180.5916237413473,5.017317509471551,Cubic,Pm-3m,221.0,m-3m,0.1,1.16.2,mp-568005,-3.815104572,-2.3962854435862067,,,['icsd-77243']
20.0,3.0,CsYbI3,901.4763525007216,5.059362289200509,Orthorhombic,Pnma,62.0,mmm,0.1,1.16.2,mp-1185576,-3.2514233179999996,-1.8804013775862067,,,['icsd-72342']
5.0,3.0,CsTaO3,71.1719581712204,8.442490841455836,Cubic,Pm-3m,221.0,m-3m,0.1,1.16.2,mp-1185552,-8.299755209999999,-2.7811059828362064,,,
10.0,3.0,CsTaS3,288.4055194292077,4.7218324785302705,Hexagonal,P6_3mc,186.0,6mm,0.1,1.16.2,mp-1225870,-6.472226546,-1.4397206254612072,,,
20.0,3.0,CsTaSe3,636.3777257598773,5.748247783542349,Orthorhombic,Pnma,62.0,mmm,0.1,1.16.2,mp-685607,-5.909243042,-1.2610601549924567,,,
10.0,3.0,CsTaSe3,316.305763736236,5.782469482037877,Hexagonal,P6_3mc,186.0,6mm,0.1,1.16.2,mp-1225880,-5.91241344,-1.2642305529924571,,,
5.0,3.0,CsOsO3,66.6889474096607,9.241140426525902,Cubic,Pm-3m,221.0,m-3m,0.1,1.16.2,mp-1183914,-6.716291416,-1.3237242288362068,,,
5.0,3.0,CsIrO3,68.60262261525105,9.031453833916114,Cubic,Pm-3m,221.0,m-3m,0.1,1.16.2,mp-984356,-5.96647933,-1.051698792836207,,,
20.0,3.0,CsPtBr3,950.7269067461582,3.9661881129327785,Orthorhombic,Pnma,62.0,mmm,0.1,1.16.2,mp-1213235,-3.392201976,-1.0670778395862066,,,
5.0,3.0,CsAuO3,78.95204306569005,7.94746075648926,Cubic,Pm-3m,221.0,m-3m,0.1,1.16.2,mp-1185548,-4.264953696,-0.4630835948362069,,,
5.0,3.0,CsAuF3,95.2985201030349,6.741008665591425,Cubic,Pm-3m,221.0,m-3m,0.1,1.16.2,mp-1112985,-3.90132574,-1.9205814850862069,,,
10.0,3.0,CsAuCl3,305.9137536017616,4.735835795145365,Tetragonal,I4/mmm,139.0,4/mmm,0.1,1.16.2,mp-23484,-3.35698054,-1.414001669586207,20.100297837000383,7.0552296966666646,"['icsd-56467', 'icsd-37453', 'icsd-417365', 'icsd-56469', 'icsd-26161', 'icsd-417371', 'icsd-417366', 'icsd-56471', 'icsd-56468', 'icsd-417368', 'icsd-37452', 'icsd-417370', 'icsd-417364', 'icsd-37451', 'icsd-56470', 'icsd-417369', 'icsd-417363', 'icsd-37450', 'icsd-417367', 'icsd-6061']"
5.0,3.0,CsAuCl3,141.1630216413004,5.131504297973442,Cubic,Pm-3m,221.0,m-3m,0.1,1.16.2,mp-23026,-3.2863371960000003,-1.3433583255862072,,,"['icsd-56472', 'icsd-417373', 'icsd-27839', 'icsd-417372']"
10.0,3.0,CsAuSe3,330.10821328837363,5.701850689530211,Monoclinic,C2/c,15.0,2/m,0.1,1.16.2,mp-567913,-3.7066925500000005,-0.7752887889924572,10.483812372320905,6.28361954124425,['icsd-84002']
10.0,3.0,CsAuBr3,349.55602409760155,5.411530359731257,Tetragonal,I4/mmm,139.0,4/mmm,0.1,1.16.2,mp-569548,-3.037363019,-1.271689146586207,20.764313486428897,9.045231280000001,"['icsd-170696', 'icsd-186067']"
5.0,3.0,CsAuBr3,163.8954261451431,5.770853651388424,Cubic,Pm-3m,221.0,m-3m,0.1,1.16.2,mp-1112987,-2.98430326,-1.218629387586207,,,
10.0,3.0,CsAuI3,431.2946941860062,5.471687382536456,Tetragonal,I4/mmm,139.0,4/mmm,0.1,1.16.2,mp-28453,-2.696688998,-0.9788123135862069,21.04917720373851,8.997380446666671,"['icsd-59269', 'icsd-186066']"
5.0,3.0,CsTlO3,93.26801547114742,6.8596295552048385,Cubic,Pm-3m,221.0,m-3m,0.1,1.16.2,mp-1185544,-4.37959604,-0.7599737095028736,,,
10.0,3.0,CsTlF3,218.42703685232235,5.994898166816377,Cubic,Fm-3m,225.0,m-3m,0.1,1.16.2,mp-1078203,-4.3153950199999995,-2.5168985357528735,,,['icsd-193792']
10.0,3.0,CsTlF3,206.63909378308202,6.336883398180716,Orthorhombic,Amm2,38.0,mm2,0.1,1.16.2,mp-998240,-3.437686363,-1.6391898787528738,,,
5.0,3.0,CsTlF3,109.88079513850573,5.958492751888762,Cubic,Pm-3m,221.0,m-3m,0.1,1.16.2,mp-2695837,-4.252012616,-2.453516131752873,,,
5.0,3.0,CsTlF3,110.35200315619933,5.933049719793685,Orthorhombic,Amm2,38.0,mm2,0.1,1.16.2,mp-998235,-4.251130984,-2.452634499752873,,,
5.0,3.0,CsTlF3,109.35558349863894,5.987110126962187,Trigonal,R3m,160.0,3m,0.1,1.16.2,mp-998234,-4.250573076,-2.4520765917528733,,,
5.0,3.0,CsTlCl3,173.7367636100523,4.240290935156971,Monoclinic,Cm,8.0,m,0.1,1.16.2,mp-1080231,-3.4170010599999996,-1.6562699602528732,,,
5.0,3.0,CsTlCl3,173.73670712399237,4.240292313779439,Tetragonal,P4mm,99.0,4mm,0.1,1.16.2,mp-1395579,-3.4169185779999998,-1.6561874782528734,,,
10.0,3.0,CsTlCl3,348.56620284002724,4.2269985892884545,Cubic,Fm-3m,225.0,m-3m,0.1,1.16.2,mp-1112176,-3.4433859050000004,-1.6826548052528736,,,
10.0,3.0,CsTlBr3,400.0094090948631,4.790548763118224,Cubic,Fm-3m,225.0,m-3m,0.1,1.16.2,mp-1112177,-3.08005807,-1.4966319682528737,,,
10.0,3.0,CsTlI3,503.7605164840436,4.7334818856371115,Cubic,Fm-3m,225.0,m-3m,0.1,1.16.2,mp-1112542,-2.6477376720000003,-1.1121087582528737,,,
5.0,3.0,CsPbO3,89.94995765714654,7.164664583017451,Cubic,Pm-3m,221.0,m-3m,0.1,1.16.2,mp-1185545,-5.014652548,-1.1250294328362067,,,
5.0,3.0,CsPbF3,112.77738319130246,5.846927310548791,Cubic,Pm-3m,221.0,m-3m,0.1,1.16.2,mp-5811,-4.849617814,-2.781120545086207,23.82603781333332,2.903257399999999,"['icsd-290350', 'icsd-290349', 'icsd-30739', 'icsd-93439', 'icsd-290351']"
10.0,3.0,CsPbF3,220.02777346350848,5.99379934099832,Trigonal,R3c,161.0,3m,0.1,1.16.2,mp-20282,-4.854054984999999,-2.785557716086207,21.32433411331445,2.8862252700000006,['icsd-93438']
5.0,3.0,CsPbCl3,183.23540813354208,4.046006564887253,Cubic,Pm-3m,221.0,m-3m,0.1,1.16.2,mp-23037,-3.911754424,-1.881022539586207,,,"['icsd-201250', 'icsd-181286', 'icsd-201251', 'icsd-181780', 'icsd-181779', 'icsd-29072', 'icsd-181781']"
10.0,3.0,CsPbCl3,356.750744626023,4.156244523078859,Orthorhombic,Amm2,38.0,mm2,0.1,1.16.2,mp-675524,-3.916884596,-1.8861527115862067,,,
5.0,3.0,CsPbCl3,182.94648775297858,4.052396268077773,Trigonal,R32,155.0,32,0.1,1.16.2,mp-675022,-3.9082919239999994,-1.8775600395862064,38.417411336666675,3.6403531,
10.0,3.0,CsPbCl3,356.9651386649454,4.153748273575659,Tetragonal,P4/mbm,127.0,4/mmm,0.1,1.16.2,mp-1539667,-3.920044919,-1.8893130345862068,49.23427193505139,3.6201942009529575,
20.0,3.0,CsPbBr3,813.5305348019324,4.733981032983984,Orthorhombic,Pnma,62.0,mmm,0.1,1.16.2,mp-567629,-3.5393921644999997,-1.6859652780862067,27.87524971333333,4.206047286666666,['icsd-97851']
20.0,3.0,CsPbBr3,769.2071757466882,5.006763123039218,Orthorhombic,Pnma,62.0,mmm,0.1,1.16.2,mp-567681,-3.5406624405000002,-1.687235554086207,,,['icsd-28312']
10.0,3.0,CsPbBr3,406.14133522480637,4.741253582787796,Tetragonal,I4/mcm,140.0,4/mmm,0.1,1.16.2,mp-1014168,-3.5316805469999997,-1.6782536605862066,,,
10.0,3.0,CsPbBr3,407.6294025266833,4.723945448529764,Orthorhombic,Amm2,38.0,mm2,0.1,1.16.2,mp-1120725,-3.533006652,-1.679579765586207,,,
5.0,3.0,CsPbBr3,210.49949127443736,4.57392806294795,Cubic,Pm-3m,221.0,m-3m,0.1,1.16.2,mp-600089,-3.531798372,-1.6783714855862069,,,"['icsd-97852', 'icsd-29073', 'icsd-201285', 'icsd-181287']"
20.0,3.0,CsPbI3,1008.6977999446959,4.74650734914947,Orthorhombic,Pnma,62.0,mmm,0.1,1.16.2,mp-1120768,-3.0859359250000002,-1.280306226586207,,,
5.0,3.0,CsPbI3,247.0988555291859,4.844004143862671,Cubic,Pm-3m,221.0,m-3m,0.1,1.16.2,mp-1069538,-3.076709898,-1.271080199586207,,,"['icsd-181288', 'icsd-161481']"
20.0,3.0,CsPbI3,930.846658290349,5.143480376565951,Orthorhombic,Pnma,62.0,mmm,0.1,1.16.2,mp-540839,-3.101759242,-1.296129543586207,14.650797886666664,4.432080986666666,"['icsd-250744', 'icsd-161480', 'icsd-27979']"
5.0,3.0,CsBiO3,86.20837029442202,7.50991693049256,Cubic,Pm-3m,221.0,m-3m,0.1,1.16.2,mp-983578,-5.2905648560000005,-1.375373328836207,,,
5.0,3.0,CsAcO3,115.52101286493193,5.863348429784877,Cubic,Pm-3m,221.0,m-3m,0.1,1.16.2,mp-1183923,-6.161423332,-2.190094629336207,,,
5.0,3.0,CsThO3,95.77858339239336,7.159281548667069,Cubic,Pm-3m,221.0,m-3m,0.1,1.16.2,mp-1183997,-7.59697365,-2.9671082988362065,,,
5.0,3.0,CsPaO3,86.93019019772653,7.86886217827183,Cubic,Pm-3m,221.0,m-3m,0.1,1.16.2,mp-1183920,-8.516854444,-3.4668278108362074,,,
5.0,3.0,CsUO3,86.082677427204,8.081229651506295,Cubic,Pm-3m,221.0,m-3m,0.1,1.16.2,mp-865424,-8.625488812,-3.2201131088362076,,,
5.0,3.0,CsUBr3,193.71287247911607,5.234562509114772,Cubic,Pm-3m,221.0,m-3m,0.1,1.16.2,mp-2647024,-4.909576282,-1.5403968075862067,,,
5.0,3.0,CsNpO3,84.66489357279501,8.196376452751363,Cubic,Pm-3m,221.0,m-3m,0.1,1.16.2,mp-1183933,-8.721830296,-2.985180658586208,,,
20.0,3.0,CsPuO3,348.11346728457795,8.10734636639799,Tetragonal,P4/mbm,127.0,4/mmm,0.1,1.16.2,mp-2647156,-8.905677414,-2.905016046836207,,,
10.0,2.0,Ba2S3,299.9588134462406,4.10595871636164,Tetragonal,I4_1md,109.0,4mm,0.1,1.16.2,mp-28978,-5.169715571,-1.9202556748750006,,,['icsd-70058']
10.0,3.0,BaCeO3,172.44455093202092,6.267612673875872,Trigonal,R-3c,167.0,-3m,0.1,1.16.2,mp-4900,-8.12700298,-3.5885769342500007,,,"['icsd-79627', 'icsd-88593', 'icsd-88592', 'icsd-94348']"
10.0,3.0,BaCeO3,172.26711111864293,6.274068485527652,Orthorhombic,Imma,74.0,mmm,0.1,1.16.2,mp-3316,-8.128615542999999,-3.5901894972499995,,,"['icsd-79626', 'icsd-88591', 'icsd-94347']"
20.0,3.0,BaCeO3,344.64733173556965,6.272009404625958,Orthorhombic,Pnma,62.0,mmm,0.1,1.16.2,mp-3187,-8.129798318,-3.5913722722500006,,,"['icsd-188637', 'icsd-88590', 'icsd-165826', 'icsd-92180', 'icsd-92258', 'icsd-165827', 'icsd-94346', 'icsd-92264', 'icsd-79001', 'icsd-165830', 'icsd-165831', 'icsd-2751', 'icsd-79625', 'icsd-92273']"
5.0,3.0,BaCeO3,89.56619857936725,6.033613517741434,Cubic,Pm-3m,221.0,m-3m,0.1,1.16.2,mp-5663,-8.089464422,-3.5510383762500006,,,"['icsd-29109', 'icsd-79628']"
10.0,3.0,BaPrO3,189.81459273707014,5.707910908447886,Trigonal,R-3c,167.0,-3m,0.1,1.16.2,mp-6910,-7.275488559999999,-2.9674991942499993,,,['icsd-163754']
5.0,3.0,BaPrO3,96.732161628463,5.600230400246306,Cubic,Pm-3m,221.0,m-3m,0.1,1.16.2,mp-4783,-7.2028086380000005,-2.8948192722500004,,,"['icsd-52336', 'icsd-163755']"
10.0,3.0,BaPrO3,189.85318606930812,5.706750605022721,Orthorhombic,Imma,74.0,mmm,0.1,1.16.2,mp-6909,-7.2814221770000005,-2.9734328112500004,,,['icsd-163753']
20.0,3.0,BaPrO3,379.2913507547934,5.712994943388242,Orthorhombic,Pnma,62.0,mmm,0.1,1.16.2,mp-22705,-7.2865833344999995,-2.97859396875,,,"['icsd-2753', 'icsd-163752']"
10.0,3.0,BaNdO3,187.3694230114581,5.841499662797266,Trigonal,R-3c,167.0,-3m,0.1,1.16.2,mp-754307,-7.300780508,-2.99534280675,,,
5.0,3.0,BaNdO3,94.61784245961687,5.783890188613706,Cubic,Pm-3m,221.0,m-3m,0.1,1.16.2,mp-755877,-7.238127457999999,-2.93268975675,,,
5.0,3.0,BaEuO3,87.36750141389481,6.410643365991762,Cubic,Pm-3m,221.0,m-3m,0.1,1.16.2,mp-1183310,-8.183482982,-2.78027440725,,,
10.0,3.0,BaTbO3,174.9224640948871,6.535941394736451,Trigonal,R-3c,167.0,-3m,0.1,1.16.2,mp-548824,-7.402091136,-3.12340970125,,,['icsd-2752']
20.0,3.0,BaTbO3,348.29396015201496,6.565046223874112,Orthorhombic,Pnma,62.0,mmm,0.1,1.16.2,mp-20129,-7.404464976,-3.12578354125,,,
10.0,3.0,BaTbO3,174.47420786847704,6.5527334264151404,Orthorhombic,Imma,74.0,mmm,0.1,1.16.2,mp-5735,-7.403501586,-3.1248201512500002,,,"['icsd-99474', 'icsd-99472', 'icsd-86736', 'icsd-86737', 'icsd-89028', 'icsd-99473']"
5.0,3.0,BaTbO3,88.21841085680292,6.479843395744582,Cubic,Pm-3m,221.0,m-3m,0.1,1.16.2,mp-2929,-7.374825732,-3.0961442972499995,,,"['icsd-99477', 'icsd-99478', 'icsd-99479']"
10.0,3.0,BaTbO3,173.9297807413048,6.573244495993126,Tetragonal,I4/mcm,140.0,4/mmm,0.1,1.16.2,mp-2939,-7.397871111000001,-3.119189676250001,,,"['icsd-99476', 'icsd-99475', 'icsd-59596']"
10.0,3.0,BaTbO3,176.3501887526242,6.483026653012643,Triclinic,P-1,2.0,-1,0.1,1.16.2,mp-1182811,-7.389091397,-3.1104099622500003,,,
5.0,3.0,BaDyO3,86.82878720439085,6.651910634066194,Cubic,Pm-3m,221.0,m-3m,0.1,1.16.2,mp-1183286,-7.3938727,-3.1207071172500003,,,
5.0,3.0,BaErO3,84.92105246203396,6.8944015811351465,Cubic,Pm-3m,221.0,m-3m,0.1,1.16.2,mp-1183291,-7.430702977999999,-3.1653510012499995,,,