material_id,formula_pretty,icsd,crystal_system,symbol,number,point_group,nsites,nelements,volume,density,energy_per_atom,formation_energy_per_atom
mp-552729,KIO3,['icsd-97995'],Trigonal,R3m,160,3m,5,3,87.3626903291311,4.06760562931978,-4.861108092,-1.37634180585
mp-1080058,KIO3,['icsd-424864'],Trigonal,R3c,161,3m,10,3,175.498772384806,4.0496804182325,-4.865235048,-1.38046876185
mp-1180816,KIO3,,Monoclinic,C2,5,2,20,3,373.603769659772,3.8046401009166,-4.856070678,-1.37130439185
mp-639811,KIrO3,['icsd-4200'],Cubic,Pn-3,201.0,m-3,60.0,3.0,853.9289617818220,6.517792453521900,-6.4726157073333300,-1.5148358551833300
mp-1184939,KLiO3,,Cubic,Pm-3m,221.0,m-3m,5.0,3.0,66.36897884792490,2.3528001362383500,-4.32660995,-0.7547323605166670
mp-1184941,KLuO3,,Cubic,Pm-3m,221.0,m-3m,5.0,3.0,83.77670255820920,5.194363902990450,-6.4784845660000000,-2.3842014458500000
mp-27865,KMgCl3,['icsd-27930'],Orthorhombic,Pnma,62.0,mmm,20.0,3.0,482.71505867649800,2.335928213706620,-3.9119917455,-2.2607339501000000
mp-3448,KMgF3,"['icsd-56096', 'icsd-28949', 'icsd-40476', 'icsd-94089', 'icsd-192409', 'icsd-40477']",Cubic,Pm-3m,221.0,m-3m,5.0,3.0,62.97202846293480,3.174844984847380,-5.2369044240000000,-3.5478812441
mp-23737,KMgH3,"['icsd-181941', 'icsd-638208', 'icsd-638209', 'icsd-181939', 'icsd-159175', 'icsd-56061']",Cubic,Pm-3m,221.0,m-3m,5.0,3.0,63.4304022052392,1.7389898850840800,-2.9351239380000000,-0.35735251160000000
mp-1017580,KMgH3,['icsd-181940'],Cubic,Pm-3m,221.0,m-3m,5.0,3.0,87.28447768517220,1.2637393356420900,-1.8864750820000000,0.6912963444000000
mp-1184960,KMgO3,,Cubic,Pm-3m,221.0,m-3m,5.0,3.0,70.32747214842630,2.630359618747930,-4.960399644000000,-1.4502506178500000
mp-29636,KMnBr3,['icsd-42441'],Orthorhombic,Pnma,62.0,mmm,20.0,3.0,576.4457502066120,3.8456501073133500,-4.5483431585,-1.5620433126862100
mp-23049,KMnCl3,"['icsd-72066', 'icsd-173939', 'icsd-32710']",Orthorhombic,Pnma,62.0,mmm,20.0,3.0,494.00859926140000,2.6944008637485700,-4.969149527500000,-1.8055446836862100
mp-567530,KMnCl3,"['icsd-173944', 'icsd-32711']",Orthorhombic,Pnma,62.0,mmm,20.0,3.0,488.391654678082,2.7253889041705500,-4.9820430695000000,-1.8184382256862100
mp-1180807,KMnF3,,Orthorhombic,Pnma,62.0,mmm,20.0,3.0,307.6339390337810,3.2609379509988600,-6.221887712,-3.020517483686210
mp-558046,KMnF3,"['icsd-35507', 'icsd-31822', 'icsd-31821']",Orthorhombic,Pnma,62.0,mmm,20.0,3.0,290.87827856163000,3.448779990624070,-6.222718584500000,-3.0213483561862100
mp-555123,KMnF3,"['icsd-59959', 'icsd-75412', 'icsd-44783', 'icsd-246920', 'icsd-15423', 'icsd-59957', 'icsd-189367', 'icsd-75409', 'icsd-59958', 'icsd-201254', 'icsd-75411', 'icsd-246919', 'icsd-43721', 'icsd-37254', 'icsd-75410', 'icsd-201255', 'icsd-75413']",Cubic,Pm-3m,221.0,m-3m,5.0,3.0,73.17514769812140,3.4273083771181700,-6.220475058,-3.0191048296862100
mp-555359,KMnF3,"['icsd-246921', 'icsd-75414']",Tetragonal,I4/mcm,140.0,4/mmm,10.0,3.0,145.31715903321,3.4516749208579800,-6.222539082,-3.021168853686210
mp-560382,KMnF3,['icsd-4054'],Tetragonal,P4/mbm,127.0,4/mmm,20.0,3.0,292.38735855159900,3.4309800251965600,-6.2213718495,-3.020001621186210
mp-1205353,KMnF3,['icsd-31820'],Orthorhombic,Imma,74.0,mmm,10.0,3.0,145.3773548581440,3.4502456995087100,-6.222445335000000,-3.021075106686210
mp-1180746,KMnF3,,Tetragonal,I4/mcm,140.0,4/mmm,10.0,3.0,146.038551017863,3.4346245557031700,-6.220977369000000,-3.0196071406862100
mp-644332,KMnF3,['icsd-89343'],Monoclinic,P2_1/m,11.0,2/m,20.0,3.0,310.3843299606010,3.232041987873100,-6.221057308500000,-3.0196870801862100
mp-1184948,KMnO3,,Cubic,Pm-3m,221.0,m-3m,5.0,3.0,61.91950425785540,3.809040682836770,-6.504970762000000,-1.4824746874362100
mp-1040469,KMoO3,,Cubic,Pm-3m,221.0,m-3m,5.0,3.0,64.23163890078020,4.731924392171150,-7.4067366220000000,-2.0475135838500000
mp-973968,KNaO3,,Cubic,Pm-3m,221.0,m-3m,5.0,3.0,87.51495972475460,2.088814888455920,-3.959771542,-0.5051734671603450
mp-7375,KNbO3,"['icsd-9534', 'icsd-190923']",Trigonal,R3m,160.0,3m,5.0,3.0,66.42558683114700,4.4997993785183500,-8.067439236,-2.85708521185
mp-4342,KNbO3,"['icsd-9532', 'icsd-190921', 'icsd-9535']",Tetragonal,P4mm,99.0,4mm,5.0,3.0,66.19193300770230,4.515683418789580,-8.065304770000000,-2.85495074585
mp-935811,KNbO3,['icsd-190920'],Cubic,Pm-3m,221.0,m-3m,5.0,3.0,65.41101790884900,4.569594296132730,-8.054525484,-2.84417145985
mp-5246,KNbO3,"['icsd-190922', 'icsd-14363', 'icsd-9533']",Orthorhombic,Amm2,38.0,mm2,5.0,3.0,66.39970574294570,4.501553297504890,-8.067304666,-2.8569506418500000
mp-27366,KNiCl3,"['icsd-167455', 'icsd-10508']",Hexagonal,P6_3cm,185.0,6mm,30.0,3.0,715.0760800661990,2.8444543645679200,-4.017751068333330,-1.5305219469333300
mp-560976,KNiF3,"['icsd-56098', 'icsd-37255', 'icsd-189369', 'icsd-15426', 'icsd-44786']",Cubic,Pm-3m,221.0,m-3m,5.0,3.0,64.38821575917800,3.991875024933350,-5.166724966000000,-2.6417304601
mp-1185015,KNpO3,,Cubic,Pm-3m,221.0,m-3m,5.0,3.0,78.70004291254200,6.83830503366296,-8.897647024,-3.1179980716
mp-1185009,KOsO3,,Cubic,Pm-3m,221.0,m-3m,5.0,3.0,60.75217475613990,7.580164649281200,-7.065703604000000,-1.6301371018500000
mp-1206970,KPaO3,,Cubic,Pm-3m,221.0,m-3m,5.0,3.0,82.6542619610523,6.3913370321952000,-8.656407698000000,-3.5633817498500000
mp-1211504,KPbI3,,Orthorhombic,Pnma,62.0,mmm,20.0,3.0,860.6416828616510,4.839075124545370,-3.0900485395,-1.2414195261
mp-1184935,KPbO3,,Cubic,Pm-3m,221.0,m-3m,5.0,3.0,82.92657461938240,5.893054640887400,-5.137626526,-1.20500409585
mp-9061,KPdF3,"['icsd-6047', 'icsd-73167']",Cubic,Pm-3m,221.0,m-3m,5.0,3.0,80.02153630160870,4.20238862870112,-4.51968138,-2.1147378481
mp-972985,KPdO3,,Cubic,Pm-3m,221.0,m-3m,5.0,3.0,67.42291986772540,4.766060397742010,-5.05649011,-0.8304207318500000
mp-5039,KPO3,"['icsd-26146', 'icsd-15872']",Monoclinic,P2_1/c,14.0,2/m,40.0,3.0,641.5459608291360,2.4448478472383600,-6.9638133050000000,-2.6910597875166700
mp-557880,KPO3,['icsd-76'],Monoclinic,P2_1/c,14.0,2/m,60.0,3.0,1005.7576849014600,2.3392547003872800,-6.960182587666670,-2.687429070183330
mp-1196581,KPO3,['icsd-65680'],Cubic,Pa-3,205.0,m-3,240.0,3.0,4158.237430130770,2.26319293343707,-6.953922860375000,-2.681169342891670
mp-1223439,KPO3,,Monoclinic,C2/m,12.0,2/m,10.0,3.0,201.794081320203,1.943171785535100,-6.717871759000000,-2.4451182415166700
mp-675976,KPO3,,Triclinic,P-1,2.0,-1,10.0,3.0,177.45227608604700,2.209724067552990,-5.470951085,-1.1981975675166700
mp-557985,KPO3,['icsd-26147'],Monoclinic,P2_1/c,14.0,2/m,40.0,3.0,641.9825133506410,2.443185333898490,-6.962771769,-2.6900182515166700
mp-13981,KPO3,['icsd-26148'],Orthorhombic,Pnma,62.0,mmm,20.0,3.0,321.2956614628420,2.4408705895628400,-6.951222896500000,-2.678469379016670
mp-8267,KPS3,['icsd-33278'],Orthorhombic,Immm,71.0,mmm,10.0,3.0,264.3180621637440,2.089096368819210,-4.7491044560000000,-0.9624942451416670
mp-569702,KPSe3,['icsd-173418'],Trigonal,P3_1,144.0,3,120.0,3.0,3731.404010154260,3.2783749332146100,-4.206666757833330,-0.8043795805062500
mp-571452,KPSe3,['icsd-173417'],Trigonal,P3_121,152.0,32,30.0,3.0,877.6161107698350,3.4847073858567900,-4.204703160000000,-0.8024159826729170
mp-974842,KPtO3,,Cubic,Pm-3m,221.0,m-3m,5.0,3.0,66.25367573946050,7.072388646410470,-5.359969388,-0.9556497078500000
mp-863708,KPuO3,,Cubic,Pm-3m,221.0,m-3m,5.0,3.0,76.6096388014749,7.17662531328815,-9.06460062,-3.02093993785
mp-1184957,KRbO3,,Cubic,Pm-3m,221.0,m-3m,5.0,3.0,125.1951764956110,2.2888242955632300,-3.722227012,-0.33602718135000000
mp-973471,KReO3,,Cubic,Pm-3m,221.0,m-3m,5.0,3.0,61.11912479420660,7.425354016710840,-7.766516010000000,-2.08751755685
mp-975134,KRhO3,,Cubic,Pm-3m,221.0,m-3m,5.0,3.0,63.59654676556200,4.961051500094680,-5.8521444560000000,-1.1891898658500000
mp-973958,KRuO3,,Cubic,Pm-3m,221.0,m-3m,5.0,3.0,61.12931948987890,5.111423239827210,-6.582909454,-1.53793592985
mp-14607,KSbO3,['icsd-41203'],Cubic,Pn-3,201.0,m-3,60.0,3.0,884.6548224253010,4.704402694997490,-6.051586918333330,-2.0356936541833300
mp-635067,KSbO3,,Triclinic,P-1,2.0,-1,10.0,3.0,161.36158055764500,4.298599163007660,-5.157419805,-1.1415265408500000
mp-1180714,KSbO3,,Triclinic,P-1,2.0,-1,10.0,3.0,183.04675960487000,3.789352822327880,-5.2545798150000000,-1.2386865508500000
mp-16293,KSbO3,['icsd-77333'],Cubic,Fd-3m,227.0,m-3m,20.0,3.0,300.17961160744900,4.621424829037070,-6.0252549990000000,-2.0093617348500000
mp-695836,KSbO3,,Triclinic,P-1,2.0,-1,10.0,3.0,179.55735057177300,3.86299281493033,-5.305372768,-1.28947950385
mp-547792,KSbO3,"['icsd-33546', 'icsd-5311']",Trigonal,R-3,148.0,-3,10.0,3.0,153.64624010469600,4.514453166273660,-6.069977969,-2.0540847048500000
mp-973960,KScO3,,Cubic,Pm-3m,221.0,m-3m,5.0,3.0,74.65340065311050,2.937283325962220,-6.798047294,-2.3414604568500000
mp-28695,KSiH3,['icsd-65954'],Orthorhombic,Pnma,62.0,mmm,20.0,3.0,319.757399910416,1.458386837216830,-3.579398097,-0.2366190746000000
mp-1199261,KSiO3,['icsd-16584'],Monoclinic,P2_1/c,14.0,2/m,40.0,3.0,671.4465340654480,2.2788317587827900,-6.74282323075,-2.4676666086000000
mp-974061,KSiO3,,Cubic,Pm-3m,221.0,m-3m,5.0,3.0,49.96122783985030,3.8282528080017300,-6.420598784000000,-2.1454421618500000
mp-1198795,KSiO3,['icsd-18155'],Orthorhombic,Cmce,64.0,mmm,40.0,3.0,670.2223739368100,2.2829940414630700,-6.740625377000000,-2.4654687548500000
mp-1097014,KSnBr3,,Orthorhombic,Pnma,62.0,mmm,20.0,3.0,665.0417230363070,3.970265113008640,-3.5093666545,-1.5535554961000000
mp-28774,KSnF3,['icsd-72472'],Triclinic,P-1,2.0,-1,40.0,3.0,736.4129577677160,3.8748869429437400,-4.96624150775,-2.79535996685
mp-1097015,KSnI3,,Orthorhombic,Pnma,62.0,mmm,20.0,3.0,836.2062838205490,4.277587265101870,-3.0666965065,-1.1586825361
mp-1079672,KSnN3,['icsd-92495'],Trigonal,P-3,147.0,-3,10.0,3.0,311.94504449458700,2.127444373118930,-4.331909158,1.6939819574000000
mp-558546,KSO3,['icsd-36154'],Trigonal,P321,150,32,30,3,531.65818069242,2.23307756566768,-6.098420835,-2.081037845475
mp-541581,KSO3,"['icsd-16661', 'icsd-82843', 'icsd-27580']",Trigonal,P321,150,32,30,3,512.648739732601,2.31588193609371,-6.09635229966667,-2.07896931014167
mp-1205548,KSrI3,,Orthorhombic,Cmcm,63.0,mmm,10.0,3.0,443.91662097569700,3.796254243576850,-3.32672278,-1.8827244899333300
mp-1184959,KSrO3,,Cubic,Pm-3m,221.0,m-3m,5.0,3.0,113.85352482172900,2.548217758597210,-4.863301408,-1.3353097011833300
mp-3614,KTaO3,"['icsd-184922', 'icsd-56440', 'icsd-280424', 'icsd-181838', 'icsd-39673', 'icsd-39905', 'icsd-56439']",Cubic,Pm-3m,221.0,m-3m,5.0,3.0,63.7546200303669,6.981426041917770,-8.640023914,-3.0783753718500000
mp-981313,KTbO3,,Cubic,Pm-3m,221.0,m-3m,5.0,3.0,90.81213175146710,4.498615826795690,-6.395549704,-2.2785834678500000
mp-28408,KTcCl3,['icsd-63512'],Monoclinic,Cc,9.0,m,20.0,3.0,549.3437181871280,2.9436605485037800,-4.916588626500000,-1.5132590521000000
mp-973267,KTcO3,,Cubic,Pm-3m,221.0,m-3m,5.0,3.0,58.14690296217850,5.285921582802930,-7.249670994000000,-1.9874501888500000
mp-567718,KTiBr3,['icsd-154260'],Hexagonal,P6_3,173.0,6,30.0,3.0,921.9412147481580,3.5303362740080300,-4.4520400953333300,-1.7190449046000000
mp-568270,KTiCl3,['icsd-154259'],Hexagonal,P6_3,173.0,6,30.0,3.0,778.4020100040380,2.474473718315040,-4.922709480000000,-2.012409291266670
mp-640578,KTiI3,['icsd-154261'],Hexagonal,P6_3,173.0,6,30.0,3.0,1192.1295743477200,3.908629323269730,-3.917784469,-1.2325864662666700
mp-760376,KTiO3,,Tetragonal,P4mm,99.0,4mm,5.0,3.0,78.59586598624730,2.851449774143140,-7.436609148,-2.6674177285166700
mp-1180658,KTiO3,['icsd-94775'],Hexagonal,P6_3/mmc,194.0,6/mmm,20.0,3.0,281.0911824858960,3.1891738806330500,-7.4266896085,-2.6574981890166700
mp-1111155,KTlBr3,,Cubic,Fm-3m,225.0,m-3m,10.0,3.0,405.140615144015,3.9609055204000200,-3.024775913,-1.3983504962666700
mp-1111296,KTlCl3,,Cubic,Fm-3m,225.0,m-3m,10.0,3.0,352.89437515010200,3.2923391489914800,-3.391741491,-1.5880110762666700
mp-1111295,KTlF3,,Cubic,Fm-3m,225.0,m-3m,10.0,3.0,220.04713226360900,4.534969175152890,-4.287616187000000,-2.4461203877666700
mp-1110822,KTlI3,,Cubic,Fm-3m,225.0,m-3m,10.0,3.0,493.94441032437600,4.196829350092660,-2.588186391,-1.0095581622666700
mp-984454,KTlO3,,Cubic,Pm-3m,221.0,m-3m,5.0,3.0,85.80387530056790,5.64092930918647,-4.464268248,-0.8016466025166660
mp-1211295,KTmBr3,,Orthorhombic,Pnma,62.0,mmm,20.0,3.0,663.8926972709670,4.479623009964920,-3.923228509,-1.8741646369333300
mp-570303,KTmI3,['icsd-72343'],Orthorhombic,Cmcm,63.0,mmm,10.0,3.0,386.92265638064900,5.053390305992180,-3.4405586150000000,-1.439291930933330
mp-1184949,KTmO3,,Cubic,Pm-3m,221.0,m-3m,5.0,3.0,85.9074501087085,4.94891881514753,-6.441807396,-2.3565472951833300
mp-4126,KUO3,"['icsd-71241', 'icsd-99547', 'icsd-44521']",Cubic,Pm-3m,221.0,m-3m,5.0,3.0,79.44393397949030,6.795779335257010,-8.78844244,-3.34006742185
mp-1205604,KVCl3,,Hexagonal,P6_3/mmc,194.0,6/mmm,10.0,3.0,255.09335182458000,2.5569296706535000,-4.991496066,-1.8435130666
mp-557257,KVF3,['icsd-28145'],Cubic,Pm-3m,221.0,m-3m,5.0,3.0,70.41227003340600,3.467540209722950,-6.230437906000000,-3.0446895221000000
mp-18815,KVO3,"['icsd-1486', 'icsd-33706', 'icsd-44528']",Orthorhombic,Pbcm,57.0,mmm,20.0,3.0,313.27195695543300,2.9267540433941800,-7.418503008500000,-2.4116287783500000
mp-1076633,KVO3,,Cubic,Pm-3m,221.0,m-3m,5.0,3.0,57.204585275291000,4.006977597551770,-7.201591718,-2.1947174878500000
mp-1040472,KWO3,,Cubic,Pm-3m,221.0,m-3m,5.0,3.0,64.82668610173050,6.940053084185970,-7.920365188000000,-2.1386461258500000
mp-1211270,KYbBr3,,Orthorhombic,Pnma,62.0,mmm,20.0,3.0,652.6613846107210,4.5984952877361,-3.820592342,-2.3587738986
mp-1206621,KYbI3,,Orthorhombic,Cmcm,63.0,mmm,10.0,3.0,398.96542643446100,4.935031257989630,-3.2546871600000000,-1.8406659046000000
mp-1184953,KYbO3,,Cubic,Pm-3m,221.0,m-3m,5.0,3.0,90.08017018668240,4.795359733483870,-5.116595602,-1.6185809298500000
mp-1184945,KYO3,,Cubic,Pm-3m,221.0,m-3m,5.0,3.0,90.97581873262900,3.2124885717965700,-6.75570838,-2.2723211411833300
mp-5878,KZnF3,"['icsd-44787', 'icsd-63157', 'icsd-186223', 'icsd-186222', 'icsd-23151', 'icsd-181798', 'icsd-56097', 'icsd-15427', 'icsd-73527']",Cubic,Pm-3m,221.0,m-3m,5.0,3.0,66.30309275332020,4.044777029368840,-4.438915822,-2.8179999301
mp-1184946,KZnO3,,Cubic,Pm-3m,221.0,m-3m,5.0,3.0,68.34503711356690,3.7053362075224700,-4.385129024000000,-0.9430872858500000
mp-1184950,KZrO3,,Cubic,Pm-3m,221.0,m-3m,5.0,3.0,76.13256665533780,3.889375724926840,-7.6996030720000000,-2.799969929850000
mp-768308,LaAgO3,,Trigonal,R3c,161.0,3m,10.0,3.0,139.99486405290400,6.992830903921760,-6.613159625,-2.091433776583330
mp-1076000,LaAgO3,,Cubic,Pm-3m,221.0,m-3m,5.0,3.0,69.34770852603960,7.0583472226186100,-6.410640516000000,-1.8889146675833300
mp-771698,LaAlO3,,Monoclinic,P2_1/c,14.0,2/m,40.0,3.0,569.581153201603,4.988433941703540,-8.37044092625,-3.666111112500000
mp-780421,LaAlO3,,Triclinic,P-1,2.0,-1,30.0,3.0,421.87864927012700,5.051188230492040,-8.34491938,-3.640589566250000
mp-1080060,LaAlO3,['icsd-180417'],Orthorhombic,Imma,74.0,mmm,10.0,3.0,108.7846540054090,6.529684685682410,-8.426660814,-3.72233100025
mp-1080080,LaAlO3,"['icsd-180418', 'icsd-180416']",Tetragonal,I4/mcm,140.0,4/mmm,10.0,3.0,108.66760027192300,6.536718281427920,-8.426382429,-3.72205261525
mp-768417,LaAlO3,,Triclinic,P-1,2.0,-1,30.0,3.0,467.7644710119820,4.555686889341700,-8.396395141666670,-3.6920653279166700
mp-2920,LaAlO3,"['icsd-153826', 'icsd-164507', 'icsd-90535', 'icsd-90527', 'icsd-153824', 'icsd-90536', 'icsd-153822', 'icsd-90528', 'icsd-92554', 'icsd-164506', 'icsd-90526', 'icsd-153825', 'icsd-90532', 'icsd-180415', 'icsd-90530', 'icsd-182612', 'icsd-90534', 'icsd-90522', 'icsd-153821', 'icsd-90525', 'icsd-180175', 'icsd-164508', 'icsd-92521', 'icsd-90523', 'icsd-90529', 'icsd-153823', 'icsd-90531', 'icsd-90524', 'icsd-90533', 'icsd-92523', 'icsd-92522', 'icsd-74494', 'icsd-174022']",Trigonal,R-3c,167.0,-3m,10.0,3.0,108.69536345095800,6.535048660257440,-8.427286556,-3.7229567422500000
mp-768518,LaAlO3,,Orthorhombic,Cmcm,63.0,mmm,30.0,3.0,442.599776648795,4.814707508494950,-8.427126325333340,-3.722796511583330
mp-696871,LaAlO3,,Triclinic,P1,1.0,1,10.0,3.0,123.70700827112700,5.742031104167990,-8.199224974,-3.4948951602500000
mp-780422,LaAlO3,,Monoclinic,P2_1/c,14.0,2/m,60.0,3.0,942.8090747140240,4.520509029965630,-8.391749496666670,-3.6874196829166700
mp-771703,LaAlO3,,Triclinic,P-1,2.0,-1,30.0,3.0,426.7858281918370,4.99310972184221,-8.384799595333330,-3.680469781583330
mp-780411,LaAlO3,,Monoclinic,P2_1/c,14.0,2/m,60.0,3.0,830.9863204470900,5.128817203013930,-8.334391190333330,-3.6300613765833300
mp-1182592,LaAlO3,,Hexagonal,P6/mmm,191.0,6/mmm,5.0,3.0,125.07172857583000,2.839688462711670,-5.52231379,-0.8179839762500000
mp-5304,LaAlO3,"['icsd-164509', 'icsd-90544', 'icsd-191422', 'icsd-90537', 'icsd-92556', 'icsd-164511', 'icsd-182616', 'icsd-28629', 'icsd-92560', 'icsd-191426', 'icsd-153828', 'icsd-191412', 'icsd-191410', 'icsd-90545', 'icsd-153836', 'icsd-182614', 'icsd-191423', 'icsd-191420', 'icsd-153833', 'icsd-90553', 'icsd-153829', 'icsd-90547', 'icsd-90556', 'icsd-191416', 'icsd-90542', 'icsd-191421', 'icsd-191415', 'icsd-153835', 'icsd-153832', 'icsd-191427', 'icsd-90541', 'icsd-90543', 'icsd-92557', 'icsd-153830', 'icsd-191428', 'icsd-92562', 'icsd-191419', 'icsd-90539', 'icsd-90552', 'icsd-191429', 'icsd-90551', 'icsd-92555', 'icsd-153827', 'icsd-90546', 'icsd-35551', 'icsd-170772', 'icsd-90549', 'icsd-191425', 'icsd-153834', 'icsd-191414', 'icsd-191417', 'icsd-92558', 'icsd-191418', 'icsd-191411', 'icsd-90550', 'icsd-191464', 'icsd-153831', 'icsd-182613', 'icsd-90540', 'icsd-164510', 'icsd-92559', 'icsd-182615', 'icsd-90548', 'icsd-191409', 'icsd-92561', 'icsd-90554', 'icsd-90555', 'icsd-191413', 'icsd-191424']",Cubic,Pm-3m,221.0,m-3m,5.0,3.0,54.13665153348020,6.560522946797750,-8.420498052000000,-3.7161682382500000
mp-1079050,LaAsO3,['icsd-423416'],Monoclinic,P2_1/m,11.0,2/m,10.0,3.0,141.51370411239200,6.144579313856290,-7.753694633,-2.866656304250000
mp-28853,LaAuO3,['icsd-73873'],Orthorhombic,Pbcm,57.0,mmm,20.0,3.0,302.0584155163610,8.441168934491100,-6.925627539500000,-2.31563649175
mp-981934,LaBeO3,,Cubic,Pm-3m,221.0,m-3m,5.0,3.0,50.965649858396300,6.383239042690800,-7.623507152,-2.9204099312500000
mp-768310,LaBiO3,,Trigonal,R3c,161.0,3m,10.0,3.0,174.44004834340700,7.537041755290870,-7.467816278000000,-2.7445038042500000
mp-755003,LaBiO3,,Trigonal,R-3,148.0,-3,10.0,3.0,176.75022353888700,7.438530497077170,-7.462360249,-2.7390477752500000
mp-8216,LaBO3,['icsd-35535'],Orthorhombic,Pnma,62.0,mmm,20.0,3.0,247.04842514826800,5.315766467693730,-8.813001928,-3.521908926083330
mp-7492,LaBO3,['icsd-15383'],Monoclinic,P2_1/m,11.0,2/m,10.0,3.0,127.94431487087000,5.132122265944870,-8.805830275,-3.5147372730833300
mp-973869,LaCdO3,,Cubic,Pm-3m,221.0,m-3m,5.0,3.0,73.04988646712440,6.803894253349310,-6.213028832,-2.07323623225
mp-989643,LaCoN3,,Monoclinic,C2/m,12.0,2/m,10.0,3.0,156.9199040239600,5.076409550800060,-8.192654316000000,-0.7818923810000000
mp-1273989,LaCoO3,,Monoclinic,P2_1/c,14.0,2/m,20.0,3.0,243.1968758343010,6.714259250947070,-7.9646670505,-2.5877888437500000
mp-1185232,LaCoO3,['icsd-164459'],Orthorhombic,Pnma,62.0,mmm,20.0,3.0,236.98698979728300,6.890196270979420,-7.935100783500000,-2.558222576750000
mp-1277476,LaCoO3,,Triclinic,P-1,2.0,-1,20.0,3.0,239.43160537909000,6.819846823423930,-7.947710977,-2.57083277025
mp-1272753,LaCoO3,,Triclinic,P1,1.0,1,20.0,3.0,237.87742729827100,6.8644044620695800,-7.9521576865,-2.5752794797500000
mp-1288145,LaCoO3,['icsd-201765'],Trigonal,R-3,148.0,-3,10.0,3.0,118.07297697836500,6.914735764099040,-7.982587506,-2.6057092992500000
mp-1180725,LaCoO3,"['icsd-99370', 'icsd-247225']",Monoclinic,C2/c,15.0,2/m,10.0,3.0,113.59993529183500,7.187006177323270,-7.943823356,-2.5669451492500000
mp-561922,LaCoO3,,Triclinic,P-1,2.0,-1,10.0,3.0,113.20636655932400,7.211992235949900,-7.9711760055,-2.59429779875
mp-510611,LaCoO3,['icsd-161383'],Cubic,Pm-3m,221.0,m-3m,5.0,3.0,87.87961684788990,4.64523780354616,-6.552312288,-1.1754340812500000
mp-1181307,LaCoO3,,Monoclinic,C2/c,15.0,2/m,10.0,3.0,680.5994949910480,1.1995945378958600,-5.067580595,0.3092976117500000