nsites,nelements,formula_pretty,volume,density,crystal_system,symbol,number,point_group,symprec,version,material_id,energy_per_atom,formation_energy_per_atom,e_total,e_electronic,icsd
10.0,3.0,PrAlO3,107.09578105965994,6.694744446690226,Trigonal,R-3c,167.0,-3m,0.1,1.16.2,mp-3466,-8.332834387,-3.65952484325,,,"['icsd-90563', 'icsd-165847', 'icsd-165841', 'icsd-90561', 'icsd-165845', 'icsd-90562', 'icsd-165840', 'icsd-90566', 'icsd-165843', 'icsd-165844', 'icsd-90558', 'icsd-90557', 'icsd-90559', 'icsd-165842', 'icsd-165848', 'icsd-90565', 'icsd-90560', 'icsd-165846', 'icsd-90564']"
10.0,3.0,NdAlO3,104.23401901492895,6.984787972938765,Cubic,Pm-3m,221.0,m-3m,0.1,1.16.2,mp-14254,-8.31650052,-3.6457426407499995,,,['icsd-35550']
10.0,3.0,NdAlO3,105.74913460950464,6.88471376219763,Trigonal,R-3c,167.0,-3m,0.1,1.16.2,mp-5899,-8.343991437,-3.6732335577499997,,,"['icsd-90574', 'icsd-90572', 'icsd-90578', 'icsd-90577', 'icsd-90575', 'icsd-90576', 'icsd-10333', 'icsd-90573', 'icsd-35444', 'icsd-249018']"
20.0,3.0,SmAlO3,208.41780048360832,7.181448769432935,Orthorhombic,Pnma,62.0,mmm,0.1,1.16.2,mp-7405,-8.3594037665,-3.6985581467500004,,,"['icsd-10334', 'icsd-164920', 'icsd-164919', 'icsd-193839']"
20.0,3.0,SmAlO3,214.38642301701807,6.981513734627289,Orthorhombic,Pnma,62.0,mmm,0.1,1.16.2,mp-1187025,-8.354219320999999,-3.6933737012499996,,,
5.0,3.0,EuAlO3,53.50400309174233,7.043378478043641,Cubic,Pm-3m,221.0,m-3m,0.1,1.16.2,mp-973892,-9.0909795,-3.322450747250001,,,
20.0,3.0,EuAlO3,214.60824909909647,7.023941445821058,Orthorhombic,Pnma,62.0,mmm,0.1,1.16.2,mp-21455,-9.0998939205,-3.3313651677500005,,,['icsd-109353']
20.0,3.0,GdAlO3,207.09282195486637,7.448380870596259,Orthorhombic,Pnma,62.0,mmm,0.1,1.16.2,mp-5223,-10.2235662665,-3.6912134257500013,,,"['icsd-150351', 'icsd-150350', 'icsd-150348', 'icsd-150355', 'icsd-150349', 'icsd-59848', 'icsd-150352', 'icsd-249020', 'icsd-150353', 'icsd-150354']"
5.0,3.0,GdAlO3,52.11781860191401,7.399130733331266,Cubic,Pm-3m,221.0,m-3m,0.1,1.16.2,mp-1178268,-10.146833046000001,-3.6144802052500014,,,
20.0,3.0,TbAlO3,203.66615099267239,7.628337563286275,Orthorhombic,Pnma,62.0,mmm,0.1,1.16.2,mp-4434,-8.3851686665,-3.74116705375,,,"['icsd-98302', 'icsd-84422']"
10.0,3.0,DyAlO3,103.67050239510857,7.607648740204467,Trigonal,R-3c,167.0,-3m,0.1,1.16.2,mp-754936,-8.359551958,-3.7210661972500008,,,
5.0,3.0,DyAlO3,51.11631980728927,7.7146473955470825,Cubic,Pm-3m,221.0,m-3m,0.1,1.16.2,mp-984723,-8.25859651,-3.62011074925,,,
20.0,3.0,DyAlO3,202.34271003182837,7.795573824413557,Orthorhombic,Pnma,62.0,mmm,0.1,1.16.2,mp-756630,-8.38752288,-3.7490371192500005,,,['icsd-188422']
20.0,3.0,HoAlO3,200.9767494622274,7.928877859584824,Orthorhombic,Pnma,62.0,mmm,0.1,1.16.2,mp-4891,-8.389978277500001,-3.7563681107500004,,,"['icsd-39606', 'icsd-1236']"
5.0,3.0,ErAlO3,50.466770895183345,7.9705295534887615,Cubic,Pm-3m,221.0,m-3m,0.1,1.16.2,mp-1184150,-8.226557721999999,-3.59588556725,,,
10.0,3.0,ErAlO3,117.7313500695251,6.833301217588388,Hexagonal,P6_3/mmc,194.0,6/mmm,0.1,1.16.2,mp-754184,-8.326985139,-3.6963129842500004,,,
20.0,3.0,ErAlO3,199.38917785385337,8.069583178361684,Orthorhombic,Pnma,62.0,mmm,0.1,1.16.2,mp-756458,-8.3947958515,-3.76412369675,,,
10.0,3.0,TmAlO3,116.83322033894945,6.9334499102895535,Hexagonal,P6_3/mmc,194.0,6/mmm,0.1,1.16.2,mp-1101265,-8.33311484,-3.7208193625833337,,,
20.0,3.0,TmAlO3,197.8539217161666,8.188437955149604,Orthorhombic,Pnma,62.0,mmm,0.1,1.16.2,mp-756281,-8.390336423499999,-3.7780409460833333,,,
10.0,3.0,YbAlO3,119.1165706553711,6.915015483862056,Hexagonal,P6_3/mmc,194.0,6/mmm,0.1,1.16.2,mp-759116,-7.105473057,-3.0804230082500004,,,
20.0,3.0,YbAlO3,196.08483275663303,8.401393609966261,Orthorhombic,Pnma,62.0,mmm,0.1,1.16.2,mp-1188667,-7.229669609,-3.20461956025,,,['icsd-168212']
5.0,3.0,YbAlO3,49.0781059712359,8.391653611787673,Cubic,Pm-3m,221.0,m-3m,0.1,1.16.2,mp-758371,-7.228837384,-3.203787335250001,,,
10.0,3.0,LuAlO3,100.49658482659085,8.259909025380914,Trigonal,R-3c,167.0,-3m,0.1,1.16.2,mp-754435,-8.345041552,-3.7237230552499994,,,
30.0,3.0,LuAlO3,371.8080788698567,6.697751032351873,Orthorhombic,Cmcm,63.0,mmm,0.1,1.16.2,mp-756850,-8.328935587333334,-3.707617090583333,,,
20.0,3.0,LuAlO3,202.06121305170757,8.216249279040953,Orthorhombic,Pnma,62.0,mmm,0.1,1.16.2,mp-755574,-8.406215403500001,-3.7848969067500007,,,
5.0,3.0,LuAlO3,49.724309536241876,8.346949970457588,Cubic,Pm-3m,221.0,m-3m,0.1,1.16.2,mp-1185485,-8.171755614,-3.55043711725,,,
10.0,3.0,LuAlO3,114.12048248056117,7.273827011470189,Hexagonal,P6_3/mmc,194.0,6/mmm,0.1,1.16.2,mp-755358,-8.365620775,-3.7443022782499993,,,
20.0,3.0,AlWN3,337.3770936711151,4.977853285650076,Triclinic,P-1,2.0,-1,0.1,1.16.2,mp-1246403,-8.979361524,-0.6367233569999982,,,
5.0,3.0,AlWO3,65.72229455843149,6.539337831097735,Cubic,Pm-3m,221.0,m-3m,0.1,1.16.2,mp-1417649,-7.760853984000001,-1.4520995452500003,,,
10.0,3.0,AlWO3,120.06924844116422,7.1588736122238465,Hexagonal,P6_3/mmc,194.0,6/mmm,0.1,1.16.2,mp-1400236,-8.202397247,-1.89364280825,,,
30.0,3.0,AlWO3,326.1757904694498,7.905803552138625,Hexagonal,P6_3cm,185.0,6mm,0.1,1.16.2,mp-1251647,-8.391159648666667,-2.082405209916667,,,
20.0,3.0,AlWO3,251.26224282870476,6.841939836467954,Orthorhombic,Pnma,62.0,mmm,0.1,1.16.2,mp-1046804,-8.653441592,-2.3446871532499998,,,
5.0,3.0,AlIrO3,49.1923229250551,9.019509478935857,Cubic,Pm-3m,221.0,m-3m,0.1,1.16.2,mp-1183133,-6.686330656,-1.20151542725,,,
5.0,3.0,AlAuO3,53.21380497954464,8.486096191787198,Cubic,Pm-3m,221.0,m-3m,0.1,1.16.2,mp-1183159,-5.773129062000001,-1.4012242692500003,,,
20.0,3.0,AlTlO3,214.28280191741933,8.659458159188336,Orthorhombic,Pnma,62.0,mmm,0.1,1.16.2,mp-768539,-6.3803607985,-2.1907037764166666,,,
5.0,3.0,AlPbO3,56.3792677148114,8.311042316450266,Cubic,Pm-3m,221.0,m-3m,0.1,1.16.2,mp-1183154,-6.651739886,-2.1920820792500004,,,
30.0,3.0,AlBiO3,409.82569070936927,6.903328622755919,Hexagonal,P6_3cm,185.0,6mm,0.1,1.16.2,mp-1376082,-6.532072210333334,-2.0468459915833335,,,
5.0,3.0,AlBiO3,54.31911150734789,8.680681447425108,Cubic,Pm-3m,221.0,m-3m,0.1,1.16.2,mp-23080,-6.928135245999999,-2.442909027249999,,,"['icsd-157549', 'icsd-158756']"
10.0,3.0,AlBiO3,113.6752137295987,8.296037245622959,Trigonal,R3c,161.0,3m,0.1,1.16.2,mp-551918,-6.9964094160000005,-2.51118319725,46.39151881672985,6.006656930000002,"['icsd-171708', 'icsd-185508']"
5.0,3.0,AlBiO3,78.10549111437122,6.037051899615939,Cubic,Pm-3m,221.0,m-3m,0.1,1.16.2,mp-1413511,-5.3847215859999995,-0.8994953672499996,,,
20.0,3.0,AlBiO3,273.8452642962739,6.8874939972276366,Orthorhombic,Pnma,62.0,mmm,0.1,1.16.2,mp-1344602,-6.8149549075,-2.3297286887499995,,,
10.0,3.0,AlBiO3,147.97103559945393,6.3732324585311035,Hexagonal,P6_3/mmc,194.0,6/mmm,0.1,1.16.2,mp-1392353,-6.184146843,-1.6989206242499997,,,
20.0,3.0,AlBiO3,284.0844556688522,6.639249618811863,Monoclinic,P2_1/c,14.0,2/m,0.1,1.16.2,mp-775763,-6.971450301500001,-2.48622408275,,,
5.0,3.0,AcAlO3,57.4514132376898,8.728230081866649,Cubic,Pm-3m,221.0,m-3m,0.1,1.16.2,mp-1183115,-8.232146192,-3.6907827977500007,,,
5.0,3.0,UAlO3,53.437919809877734,9.726484321118647,Cubic,Pm-3m,221.0,m-3m,0.1,1.16.2,mp-972367,-9.212781082,-3.2373706872499994,,,
5.0,3.0,NpAlO3,53.406004744739306,9.700305169972227,Cubic,Pm-3m,221.0,m-3m,0.1,1.16.2,mp-1186110,-9.598500292,-3.2918159630000003,,,
10.0,2.0,Si2N3,126.44547939210858,2.578979625468574,Orthorhombic,Cmc2_1,36.0,mm2,0.1,1.16.2,mp-1080623,-8.029119333,-0.8570951659999991,,,['icsd-202970']
50.0,2.0,Si2O3,994.5232770922947,1.7392959030803654,Monoclinic,C2/c,15.0,2/m,0.1,1.16.2,mp-1179195,-7.304254349000001,-2.166113910250001,,,"['icsd-73740', 'icsd-73741']"
20.0,3.0,SiPN3,228.86785317555882,2.9335046770286755,Monoclinic,Cc,9.0,m,0.1,1.16.2,mp-36053,-8.031904856,-0.8622837936666656,8.078477423333334,4.208288929999999,
10.0,3.0,SiPN3,113.89507069075601,2.947383559447166,Monoclinic,P2_1,4.0,2,0.1,1.16.2,mp-1219220,-8.039083438,-0.8694623756666658,,,
20.0,3.0,KSiH3,319.757399910416,1.458386837216834,Orthorhombic,Pnma,62.0,mmm,0.1,1.16.2,mp-28695,-3.579398097,-0.2366190746000001,7.611303893333332,3.6805999233333324,['icsd-65954']
40.0,3.0,KSiO3,671.4465340654475,2.2788317587827858,Monoclinic,P2_1/c,14.0,2/m,0.1,1.16.2,mp-1199261,-6.74282323075,-2.4676666085999996,,,['icsd-16584']
5.0,3.0,KSiO3,49.96122783985031,3.8282528080017304,Cubic,Pm-3m,221.0,m-3m,0.1,1.16.2,mp-974061,-6.420598784000001,-2.1454421618500006,,,
40.0,3.0,KSiO3,670.2223739368103,2.2829940414630667,Orthorhombic,Cmce,64.0,mmm,0.1,1.16.2,mp-1198795,-6.740625377000001,-2.4654687548500007,,,['icsd-18155']
5.0,3.0,CaSiO3,46.96632581831585,4.10700725534391,Cubic,Pm-3m,221.0,m-3m,0.1,1.16.2,mp-5893,-7.658790582,-3.204593773250001,,,"['icsd-240446', 'icsd-240453', 'icsd-240444', 'icsd-240443', 'icsd-240439', 'icsd-240450', 'icsd-240451', 'icsd-240438', 'icsd-240440', 'icsd-240445', 'icsd-240409', 'icsd-240406', 'icsd-40658', 'icsd-240411', 'icsd-240448', 'icsd-240442', 'icsd-240407', 'icsd-240449', 'icsd-240413', 'icsd-240412', 'icsd-240441', 'icsd-240452', 'icsd-240447', 'icsd-240410', 'icsd-240408']"
30.0,3.0,CaSiO3,390.2425615855172,2.9657099437176484,Triclinic,P-1,2.0,-1,0.1,1.16.2,mp-4428,-7.880057129333334,-3.425860320583334,,,"['icsd-16923', 'icsd-4442', 'icsd-98727']"
10.0,3.0,CaSiO3,93.95182669325759,4.106169037509772,Tetragonal,I4/mcm,140.0,4/mmm,0.1,1.16.2,mp-3387,-7.6616936980000006,-3.207496889250001,,,"['icsd-240415', 'icsd-240421', 'icsd-240418', 'icsd-240457', 'icsd-240420', 'icsd-240454', 'icsd-240458', 'icsd-240456', 'icsd-240460', 'icsd-240461', 'icsd-240414', 'icsd-240417', 'icsd-240419', 'icsd-240416', 'icsd-240459', 'icsd-240455']"
20.0,3.0,CaSiO3,187.989360397809,4.10429697690311,Cubic,Im-3,204.0,m-3,0.1,1.16.2,mp-4356,-7.659303525,-3.2051067162500004,,,
10.0,3.0,CaSiO3,94.00639676203232,4.103785434537042,Tetragonal,P4/mbm,127.0,4/mmm,0.1,1.16.2,mp-3382,-7.659278372,-3.2050815632500003,,,"['icsd-240430', 'icsd-240437', 'icsd-240436', 'icsd-240434', 'icsd-240431', 'icsd-240435', 'icsd-240432', 'icsd-240433']"
30.0,3.0,CaSiO3,410.09472876363435,2.8221436760360628,Monoclinic,C2/c,15.0,2/m,0.1,1.16.2,mp-17552,-7.882680439333334,-3.4284836305833344,,,['icsd-87694']
20.0,3.0,CaSiO3,188.0809592100086,4.102298110406588,Orthorhombic,Pnma,62.0,mmm,0.1,1.16.2,mp-560885,-7.6617654905,-3.2075686817499998,,,['icsd-240462']
60.0,3.0,CaSiO3,1157.9363364694277,1.9989807883303643,Monoclinic,P2_1/c,14.0,2/m,0.1,1.16.2,mp-649676,-7.5526469988333345,-3.098450190083334,,,['icsd-36311']
10.0,3.0,CaSiO3,93.99326291098973,4.104358864003566,Orthorhombic,Imma,74.0,mmm,0.1,1.16.2,mp-5096,-7.661885076999999,-3.20768826825,,,"['icsd-240425', 'icsd-240426', 'icsd-240463', 'icsd-240469', 'icsd-240423', 'icsd-240422', 'icsd-240468', 'icsd-240429', 'icsd-240428', 'icsd-240465', 'icsd-240464', 'icsd-240467', 'icsd-240427', 'icsd-240466', 'icsd-240424']"
30.0,3.0,CaSiO3,398.68262690453184,2.902926205593484,Triclinic,P-1,2.0,-1,0.1,1.16.2,mp-4429,-7.902986693666667,-3.4487898849166667,,,"['icsd-20571', 'icsd-201537', 'icsd-23567', 'icsd-33702']"
60.0,3.0,CaSiO3,797.3329242079571,2.90304391106308,Monoclinic,P2_1/c,14.0,2/m,0.1,1.16.2,mp-5733,-7.902994123666668,-3.4487973149166673,,,"['icsd-30884', 'icsd-201538', 'icsd-34908', 'icsd-20589']"
60.0,3.0,CaSiO3,819.3157372160958,2.8251532169722338,Monoclinic,C2/c,15.0,2/m,0.1,1.16.2,mp-561086,-7.882777688666667,-3.428580879916667,,,"['icsd-87716', 'icsd-423129']"
20.0,3.0,CaSiO3,187.86589811423534,4.106994251301068,Tetragonal,I4/mmm,139.0,4/mmm,0.1,1.16.2,mp-4853,-7.6592837915,-3.205086982750001,,,
20.0,3.0,CaSiO3,188.03765431473482,4.1032428658105005,Cubic,Im-3,204.0,m-3,0.1,1.16.2,mp-1181886,-7.6592618475,-3.20506503875,,,
5.0,3.0,ScSiO3,45.978363101869,4.3714258353824675,Cubic,Pm-3m,221.0,m-3m,0.1,1.16.2,mp-1186993,-8.084743016000001,-2.76517236225,,,
20.0,3.0,VSiO3,211.80663719870822,3.9834503740275564,Monoclinic,C2/c,15.0,2/m,0.1,1.16.2,mp-754608,-8.679419126500001,-2.8095610797500017,,,
40.0,3.0,MnSiO3,461.88819584845714,3.7683011274526805,Monoclinic,P2_1/c,14.0,2/m,0.1,1.16.2,mp-17766,-8.6662115035,-2.780731612336207,,,['icsd-77579']
80.0,3.0,MnSiO3,834.8583658931389,4.16965051865004,Tetragonal,I4_1/a,88.0,4/m,0.1,1.16.2,mp-532143,-8.600073681125,-2.7145937899612065,,,
50.0,3.0,MnSiO3,681.8804565771651,3.1906872245425943,Triclinic,P-1,2.0,-1,0.1,1.16.2,mp-1180212,-8.3125268194,-2.427046928236207,,,
50.0,3.0,MnSiO3,626.6284323257277,3.472021295604248,Triclinic,P-1,2.0,-1,0.1,1.16.2,mp-647680,-8.3748873332,-2.4894074420362076,,,
50.0,3.0,MnSiO3,609.8634474858729,3.567466242541827,Triclinic,P-1,2.0,-1,0.1,1.16.2,mp-1180172,-8.3885989212,-2.503119030036207,,,
50.0,3.0,MnSiO3,638.2667983305516,3.408711321279282,Triclinic,P-1,2.0,-1,0.1,1.16.2,mp-1181218,-8.567243818200001,-2.6817639270362075,,,
20.0,3.0,MnSiO3,230.97142546821397,3.7678552782979553,Monoclinic,C2/c,15.0,2/m,0.1,1.16.2,mp-1289249,-8.669610447,-2.7841305558362066,,,
40.0,3.0,MnSiO3,456.7632794800455,3.810581733177314,Monoclinic,P2_1/c,14.0,2/m,0.1,1.16.2,mp-1172857,-8.666176844499999,-2.7806969533362063,,,['icsd-77579']
70.0,3.0,MnSiO3,845.7293596037858,3.601547151537259,Triclinic,P-1,2.0,-1,0.1,1.16.2,mp-5945,-8.675314685857142,-2.7898347946933493,,,"['icsd-90882', 'icsd-34343', 'icsd-34159']"
50.0,3.0,MnSiO3,605.3168656424277,3.5942617576944245,Triclinic,P-1,2.0,-1,0.1,1.16.2,mp-560199,-8.6752206598,-2.7897407686362077,,,"['icsd-34342', 'icsd-171927', 'icsd-34160', 'icsd-171925', 'icsd-171926', 'icsd-171921', 'icsd-171924', 'icsd-171928', 'icsd-171923']"
80.0,3.0,FeSiO3,925.787299789366,3.786144146165661,Orthorhombic,Pbca,61.0,mmm,0.1,1.16.2,mp-21939,-8.325332232125,-2.578251157375,,,"['icsd-34858', 'icsd-34863', 'icsd-34860', 'icsd-34859', 'icsd-17055', 'icsd-34861', 'icsd-34862']"
20.0,3.0,FeSiO3,233.00914797180513,3.7607581034931714,Monoclinic,C2/c,15.0,2/m,0.1,1.16.2,mp-18269,-8.322428204000001,-2.5753471292500008,,,"['icsd-75929', 'icsd-75930', 'icsd-30675', 'icsd-159524']"
20.0,3.0,FeSiO3,230.27623832947737,3.805390637696693,Monoclinic,C2/c,15.0,2/m,0.1,1.16.2,mp-561362,-8.256560125,-2.5094790502500004,,,"['icsd-30675', 'icsd-75930']"
90.0,3.0,FeSiO3,1045.1464962152727,3.7729731675733493,Triclinic,P-1,2.0,-1,0.1,1.16.2,mp-650392,-8.317575560777778,-2.5704944860277767,,,['icsd-36049']
40.0,3.0,FeSiO3,457.98957997841615,3.826685495614563,Monoclinic,P2_1/c,14.0,2/m,0.1,1.16.2,mp-1199561,-8.32495068225,-2.5778696075,,,['icsd-75928']
80.0,3.0,CoSiO3,879.1468013139676,4.080334769363951,Orthorhombic,Pbca,61.0,mmm,0.1,1.16.2,mp-699575,-7.93103831725,-2.4562979255000004,,,['icsd-17054']
10.0,3.0,CuSiO3,126.01771806237532,3.679809081971686,Orthorhombic,Pmma,51.0,mmm,0.1,1.16.2,mp-16053,-7.123297562,-2.2503793952500004,,,['icsd-89669']
30.0,3.0,CuSiO3,481.17749239410796,2.891164803499157,Trigonal,R-3,148.0,-3,0.1,1.16.2,mp-556982,-7.157524646333333,-2.284606479583333,,,"['icsd-247127', 'icsd-65955']"
20.0,3.0,ZnSiO3,271.8030829899101,3.4577114196668006,Orthorhombic,Ibam,72.0,mmm,0.1,1.16.2,mp-1178612,-6.9622586685000005,-2.6572331137500003,,,
20.0,3.0,ZnSiO3,234.7613099162203,4.003285823759669,Monoclinic,C2/c,15.0,2/m,0.1,1.16.2,mp-562182,-6.95038914,-2.64536358525,,,"['icsd-158517', 'icsd-167185', 'icsd-1860', 'icsd-159549', 'icsd-158515']"
40.0,3.0,ZnSiO3,457.4908908673707,4.108569777960076,Monoclinic,P2_1/c,14.0,2/m,0.1,1.16.2,mp-641917,-6.941780636,-2.63675508125,,,"['icsd-167184', 'icsd-158516']"
5.0,3.0,ZnSiO3,44.4463555048899,5.286241207400336,Cubic,Pm-3m,221.0,m-3m,0.1,1.16.2,mp-1016876,-6.420110908000001,-2.115085353250001,,,
80.0,3.0,ZnSiO3,917.856103283554,4.09570354478328,Orthorhombic,Pbca,61.0,mmm,0.1,1.16.2,mp-619034,-6.945300627875,-2.6402750731249993,,,"['icsd-1861', 'icsd-167183']"
10.0,3.0,ZnSiO3,93.45862085830957,5.027982519556377,Trigonal,R-3,148.0,-3,0.1,1.16.2,mp-1020623,-6.850865412,-2.5458398572500003,,,['icsd-167186']
5.0,3.0,GaSiO3,45.74953767768221,5.2922441146358805,Cubic,Pm-3m,221.0,m-3m,0.1,1.16.2,mp-1184206,-6.705735318,-2.0470392807500004,,,
80.0,3.0,SiGeO3,1025.8208654925386,3.851924206836593,Orthorhombic,Pbca,61.0,mmm,0.1,1.16.2,mp-769171,-7.455841849875,-2.4781594461250003,,,
5.0,3.0,SrSiO3,50.607918520880645,5.371420069070963,Cubic,Pm-3m,221.0,m-3m,0.1,1.16.2,mp-1017439,-7.50927637,-3.1183008465833337,,,['icsd-248973']
40.0,3.0,SrSiO3,565.4296903578274,3.8460858187328224,Monoclinic,P2_1/c,14.0,2/m,0.1,1.16.2,mp-561547,-7.7975248545,-3.4065493310833332,,,['icsd-32678']
30.0,3.0,SrSiO3,425.60981406345377,3.832191555006369,Triclinic,P-1,2.0,-1,0.1,1.16.2,mp-18313,-7.813686048333334,-3.422710524916668,,,['icsd-32677']
20.0,3.0,SrSiO3,368.42290552265007,2.951351668119932,Monoclinic,Pc,7.0,m,0.1,1.16.2,mp-1173151,-6.9305118545,-2.539536331083333,,,
30.0,3.0,SrSiO3,447.8557103265806,3.6418388725968116,Monoclinic,C2/c,15.0,2/m,0.1,1.16.2,mp-3978,-7.8335523,-3.4425767765833344,,,"['icsd-38271', 'icsd-59308', 'icsd-261228']"
5.0,3.0,YSiO3,51.624579106919604,5.306999070894734,Cubic,Pm-3m,221.0,m-3m,0.1,1.16.2,mp-1187862,-8.15080226,-2.8044312045833335,,,
5.0,3.0,ZrSiO3,49.16759723607481,5.650489094658311,Cubic,Pm-3m,221.0,m-3m,0.1,1.16.2,mp-1183043,-7.983369882,-2.220752923249999,,,
5.0,3.0,SiMoO3,48.44761250350568,5.8961021910090725,Cubic,Pm-3m,221.0,m-3m,0.1,1.16.2,mp-1186997,-7.897829032,-1.6756221772499997,,,
5.0,3.0,SiPdO3,46.58900297437676,6.504851022798701,Cubic,Pm-3m,221.0,m-3m,0.1,1.16.2,mp-978490,-6.653262065999999,-1.564208871249999,,,
5.0,3.0,SiAgO3,47.48972232323486,6.432114179278898,Cubic,Pm-3m,221.0,m-3m,0.1,1.16.2,mp-1186999,-6.277115192,-1.6575271585833335,,,
40.0,3.0,CdSiO3,529.9800388010572,4.724748711745973,Orthorhombic,Pbcn,60.0,mmm,0.1,1.16.2,mp-776023,-6.75465183,-2.51699704525,,,
5.0,3.0,CdSiO3,47.43478301350349,6.598592705861918,Cubic,Pm-3m,221.0,m-3m,0.1,1.16.2,mp-1016879,-6.4069444959999995,-2.16928971125,,,
60.0,3.0,CdSiO3,766.931992499724,4.897479561547846,Monoclinic,P2_1/c,14.0,2/m,0.1,1.16.2,mp-560560,-6.7814507625000005,-2.5437959777500008,,,['icsd-170703']
5.0,3.0,InSiO3,49.14932005240002,6.449727694958696,Cubic,Pm-3m,221.0,m-3m,0.1,1.16.2,mp-1184751,-6.668208518,-2.0647949392500005,,,
60.0,3.0,SiSnO3,911.6581951128397,4.257681887947367,Monoclinic,P2/c,13.0,2/m,0.1,1.16.2,mp-776110,-7.4420375818333335,-2.587046378083334,,,
5.0,3.0,SiSnO3,51.15649342831221,6.323000798145838,Cubic,Pm-3m,221.0,m-3m,0.1,1.16.2,mp-978493,-6.9816874040000005,-2.12669620025,,,
5.0,3.0,CsSiI3,230.12230299940617,3.9088834231112997,Trigonal,R3m,160.0,3m,0.1,1.16.2,mp-1147745,-3.117877412,-0.9697135215862069,,,
20.0,3.0,BaSiO3,335.46476985200644,4.22550248405267,Orthorhombic,P2_12_12_1,19.0,222,0.1,1.16.2,mp-7339,-7.819616552499999,-3.3827447317500003,,,['icsd-6245']
15.0,3.0,BaSiO3,184.40389415384814,5.765227565391804,Trigonal,R-3m,166.0,-3m,0.1,1.16.2,mp-12958,-7.546947386666668,-3.110075565916667,,,['icsd-156705']
40.0,3.0,BaSiO3,643.3305773691544,4.406777069787621,Monoclinic,P2_1/c,14.0,2/m,0.1,1.16.2,mp-776076,-7.80272853875,-3.3658567180000007,,,
5.0,3.0,BaSiO3,56.48771473314591,6.273519937114947,Cubic,Pm-3m,221.0,m-3m,0.1,1.16.2,mp-1016821,-7.280380138,-2.84350831725,,,
30.0,3.0,BaSiO3,350.22197599033973,6.071180489088911,Hexagonal,P6_3/mmc,194.0,6/mmm,0.1,1.16.2,mp-18407,-7.433081184000001,-2.99620936325,,,['icsd-156706']
30.0,3.0,BaSiO3,518.5696943364608,4.100241203264657,Monoclinic,C2/c,15.0,2/m,0.1,1.16.2,mp-776084,-7.841648403,-3.40477658225,,,
5.0,3.0,SmSiO3,53.517592677572,7.026074818066906,Cubic,Pm-3m,221.0,m-3m,0.1,1.16.2,mp-978506,-7.834020336,-2.837226276250001,,,
5.0,3.0,EuSiO3,51.38487331369103,7.369525124378975,Cubic,Pm-3m,221.0,m-3m,0.1,1.16.2,mp-866030,-9.182717856,-3.07824066325,,,
5.0,3.0,GdSiO3,51.90876675147047,7.464244455265322,Cubic,Pm-3m,221.0,m-3m,0.1,1.16.2,mp-1184484,-9.751558952,-2.88325767125,,,
5.0,3.0,TbSiO3,51.82427694555707,7.530094610668917,Cubic,Pm-3m,221.0,m-3m,0.1,1.16.2,mp-1187364,-7.797072692,-2.8171226392500004,,,
5.0,3.0,HoSiO3,51.048295860736005,7.839893360987574,Cubic,Pm-3m,221.0,m-3m,0.1,1.16.2,mp-1184813,-7.757031606,-2.7874729992499994,,,