nsites,nelements,formula_pretty,volume,density,crystal_system,symbol,number,point_group,symprec,version,material_id,energy_per_atom,formation_energy_per_atom,e_total,e_electronic,icsd
30.0,3.0,SiCCl3,860.7050523856822,1.6953165112669097,Monoclinic,C2/m,12.0,2/m,0.1,1.16.2,mp-1209042,-5.2240218579999995,-1.1841031574999998,,,
40.0,3.0,PCF3,822.0908860582713,1.6155892578122626,Tetragonal,P4_2/nmc,137.0,4/mmm,0.1,1.16.2,mp-540785,-5.01862924875,-0.9433482684166663,,,['icsd-23899']
100.0,3.0,PCF3,1668.3480336961156,1.990234018376031,Monoclinic,P2_1/c,14.0,2/m,0.1,1.16.2,mp-556383,-5.5816849013,-1.5064039209666669,,,['icsd-15397']
20.0,3.0,KCO3,323.2987632266502,2.0361522665766083,Monoclinic,P2_1/c,14.0,2/m,0.1,1.16.2,mp-1105868,-6.8399012804999995,-1.80407516585,,,['icsd-157702']
20.0,3.0,KCO3,350.45565477951186,1.878370345998601,Monoclinic,P2_1/c,14.0,2/m,0.1,1.16.2,mp-1106094,-6.851735725499999,-1.8159096108499995,,,"['icsd-2328', 'icsd-2326', 'icsd-24708', 'icsd-27793', 'icsd-24639']"
10.0,3.0,CaCO3,120.1538154729379,2.766424134776147,Triclinic,P-1,2.0,-1,0.1,1.16.2,mp-1079918,-7.887421551999999,-2.67255525075,,,['icsd-186773']
20.0,3.0,CaCO3,306.45783959936216,2.169279894711278,Orthorhombic,Pnma,62.0,mmm,0.1,1.16.2,mp-641635,-6.5258647435,-1.3109984422500005,,,
20.0,3.0,CaCO3,248.79393564712478,2.672062035155288,Orthorhombic,Pnma,62.0,mmm,0.1,1.16.2,mp-553939,-7.890069259000001,-2.675202957750001,,,"['icsd-27827', 'icsd-157302', 'icsd-157301']"
20.0,3.0,CaCO3,244.95879367681044,2.713896570280523,Monoclinic,P2_1/c,14.0,2/m,0.1,1.16.2,mp-556235,-7.901712143999999,-2.6868458427500004,,,['icsd-150']
20.0,3.0,CaCO3,234.24383173134112,2.8380377195247304,Orthorhombic,Pnma,62.0,mmm,0.1,1.16.2,mp-4626,-7.8792835165,-2.6644172152500003,,,"['icsd-169907', 'icsd-15194', 'icsd-169908', 'icsd-169897', 'icsd-169894', 'icsd-169911', 'icsd-34308', 'icsd-280991', 'icsd-169910', 'icsd-169899', 'icsd-169902', 'icsd-157992', 'icsd-169912', 'icsd-52152', 'icsd-169904', 'icsd-56090', 'icsd-169905', 'icsd-169895', 'icsd-166085', 'icsd-169903', 'icsd-169900', 'icsd-32100', 'icsd-169896', 'icsd-166086', 'icsd-157996', 'icsd-157997', 'icsd-190072', 'icsd-157993', 'icsd-166087', 'icsd-169898', 'icsd-157994', 'icsd-169893', 'icsd-170225', 'icsd-169901', 'icsd-169892', 'icsd-169890', 'icsd-15198', 'icsd-161817', 'icsd-169906', 'icsd-169909', 'icsd-157995', 'icsd-169891']"
90.0,3.0,CaCO3,1174.5909952235652,2.546901642574381,Hexagonal,P6_522,179.0,622,0.1,1.16.2,mp-560265,-7.8955692509999995,-2.68070294975,,,
50.0,3.0,CaCO3,590.851968969494,2.8128569630520843,Triclinic,P-1,2.0,-1,0.1,1.16.2,mp-1197230,-7.8792393581999995,-2.6643730569500006,,,"['icsd-186771', 'icsd-193085', 'icsd-193086', 'icsd-193083', 'icsd-193084']"
10.0,3.0,CaCO3,110.76982689463699,3.000784819551508,Orthorhombic,Pmmn,59.0,mmm,0.1,1.16.2,mp-3205,-7.734772092,-2.5199057907500007,,,"['icsd-161621', 'icsd-161620', 'icsd-161818', 'icsd-161819']"
30.0,3.0,CaCO3,376.2607498876414,2.6502611429098164,Monoclinic,C2/c,15.0,2/m,0.1,1.16.2,mp-1194399,-7.895032499333334,-2.680166198083334,,,['icsd-424575']
90.0,3.0,CaCO3,1170.318280569606,2.5562001250052657,Triclinic,P-1,2.0,-1,0.1,1.16.2,mp-1197939,-7.895481444,-2.6806151427500002,,,['icsd-424574']
15.0,3.0,CaCO3,191.62792800071696,2.601889128148362,Monoclinic,C2,5.0,2,0.1,1.16.2,mp-561412,-7.8964401466666665,-2.6815738454166667,8.457951436666667,2.711274356666666,['icsd-83607']
20.0,3.0,CaCO3,233.29606311051344,2.8495672886885988,Triclinic,P-1,2.0,-1,0.1,1.16.2,mp-1188902,-7.883719112,-2.6688528107500007,,,['icsd-186772']
10.0,3.0,CaCO3,104.7489959704011,3.1732658812663006,Orthorhombic,C222_1,20.0,222,0.1,1.16.2,mp-548403,-7.593784954,-2.378918652750001,12.688309365439821,3.209418586876002,['icsd-161820']
10.0,3.0,CaCO3,122.9495072208524,2.7035197010809995,Trigonal,R-3c,167.0,-3m,0.1,1.16.2,mp-3953,-7.9036375660000004,-2.688771264750001,9.196357543319936,2.8618342133333337,"['icsd-180348', 'icsd-18164', 'icsd-191858', 'icsd-166365', 'icsd-169933', 'icsd-169917', 'icsd-40543', 'icsd-191865', 'icsd-169918', 'icsd-52151', 'icsd-191862', 'icsd-191857', 'icsd-40546', 'icsd-191861', 'icsd-73446', 'icsd-28827', 'icsd-79674', 'icsd-169931', 'icsd-191856', 'icsd-191859', 'icsd-169932', 'icsd-169922', 'icsd-191854', 'icsd-164935', 'icsd-158258', 'icsd-18165', 'icsd-169920', 'icsd-169927', 'icsd-191866', 'icsd-79673', 'icsd-158472', 'icsd-423568', 'icsd-191868', 'icsd-166364', 'icsd-191867', 'icsd-40112', 'icsd-20179', 'icsd-169916', 'icsd-40115', 'icsd-40116', 'icsd-423567', 'icsd-191864', 'icsd-172232', 'icsd-169929', 'icsd-169925', 'icsd-169913', 'icsd-180349', 'icsd-40107', 'icsd-40544', 'icsd-40113', 'icsd-80869', 'icsd-40545', 'icsd-190276', 'icsd-169930', 'icsd-191852', 'icsd-37241', 'icsd-40548', 'icsd-169928', 'icsd-169915', 'icsd-169921', 'icsd-169919', 'icsd-169924', 'icsd-190275', 'icsd-191863', 'icsd-191855', 'icsd-158257', 'icsd-169926', 'icsd-191860', 'icsd-169914', 'icsd-18166', 'icsd-169923', 'icsd-191853', 'icsd-40114', 'icsd-16710']"
15.0,3.0,CaCO3,185.5030024074616,2.687798127490616,Trigonal,P321,150.0,32,0.1,1.16.2,mp-2717324,-7.902225894,-2.68735959275,,,
10.0,3.0,CaCO3,118.88023144734049,2.796061304414723,Monoclinic,C2/c,15.0,2/m,0.1,1.16.2,mp-696740,-6.030930786000001,-0.8160644847500009,,,
10.0,3.0,MnCO3,187.94551947486113,2.0311619376949506,Monoclinic,C2/c,15.0,2/m,0.1,1.16.2,mp-1180142,-7.6159023669999995,-0.9697529833362069,,,
10.0,3.0,MnCO3,116.31961901016837,3.281886484551429,Monoclinic,C2/c,15.0,2/m,0.1,1.16.2,mp-695863,-7.321263836,-0.6751144523362071,,,
10.0,3.0,MnCO3,102.17288915450139,3.7362923636267213,Trigonal,R-3c,167.0,-3m,0.1,1.16.2,mp-18814,-8.660360827,-2.014211443336207,8.894986129999763,3.189082493333334,"['icsd-196042', 'icsd-196037', 'icsd-196046', 'icsd-196019', 'icsd-196015', 'icsd-196039', 'icsd-196048', 'icsd-100677', 'icsd-196018', 'icsd-196022', 'icsd-196052', 'icsd-196041', 'icsd-196044', 'icsd-28556', 'icsd-80867', 'icsd-196035', 'icsd-196047', 'icsd-196043', 'icsd-196038', 'icsd-196034', 'icsd-196045', 'icsd-196049', 'icsd-196020', 'icsd-196033', 'icsd-196029', 'icsd-196050', 'icsd-196036', 'icsd-196031', 'icsd-196023', 'icsd-196013', 'icsd-37242', 'icsd-196032', 'icsd-196017', 'icsd-196021', 'icsd-196051', 'icsd-196016', 'icsd-196040', 'icsd-80868', 'icsd-196014', 'icsd-196030']"
20.0,3.0,MnCO3,220.24702476402237,3.4665420422968816,Monoclinic,P2_1/c,14.0,2/m,0.1,1.16.2,mp-1180143,-8.3878587325,-1.741709348836207,,,
20.0,3.0,MnCO3,223.19762703076924,3.420715449318076,Triclinic,P-1,2.0,-1,0.1,1.16.2,mp-1078473,-8.63006146,-1.9839120763362075,,,"['icsd-196024', 'icsd-196028', 'icsd-196027', 'icsd-196026', 'icsd-196025']"
10.0,3.0,MnCO3,112.07515008417518,3.406176884268524,Monoclinic,Cc,9.0,m,0.1,1.16.2,mp-690525,-8.578940629,-1.9327912453362075,85.91779587000002,3.120694463333333,
20.0,3.0,MnCO3,222.95507445916135,3.4244368417599547,Monoclinic,P2/c,13.0,2/m,0.1,1.16.2,mp-1271783,-8.6304542665,-1.984304882836207,,,
10.0,3.0,FeCO3,95.4533447182052,4.030868222290347,Trigonal,R-3c,167.0,-3m,0.1,1.16.2,mp-18969,-8.298319626,-1.7905690587500005,,,"['icsd-169793', 'icsd-182821', 'icsd-169790', 'icsd-169798', 'icsd-169797', 'icsd-169792', 'icsd-169795', 'icsd-169789', 'icsd-169794', 'icsd-169796', 'icsd-169791', 'icsd-100678']"
10.0,3.0,FeCO3,114.26100286432916,3.367376832783398,Monoclinic,Cc,9.0,m,0.1,1.16.2,mp-675126,-6.780641645,-0.2728910777500005,,,
10.0,3.0,CoCO3,92.16431121165972,4.285997319660145,Trigonal,R-3c,167.0,-3m,0.1,1.16.2,mp-21434,-7.907360729,-1.6719508447500004,8.37484807000154,3.6625801033333345,"['icsd-5208', 'icsd-52377', 'icsd-5396', 'icsd-61066']"
10.0,3.0,CoCO3,239.14484629654737,1.6517855054742194,Monoclinic,C2/c,15.0,2/m,0.1,1.16.2,mp-1181984,-7.485859252,-1.2504493677500008,,,
10.0,3.0,NiCO3,88.94505301232424,4.432170194287513,Trigonal,R-3c,167.0,-3m,0.1,1.16.2,mp-19147,-7.625219773,-1.6554461117500012,6.851941340003058,3.5257742166666666,"['icsd-61067', 'icsd-173985']"
10.0,3.0,CuCO3,119.7354338574424,3.4270179129117295,Triclinic,P-1,2.0,-1,0.1,1.16.2,mp-1178374,-6.9880521270000004,-1.3544644677500002,,,
10.0,3.0,CuCO3,141.79916399797747,2.893779237270859,Monoclinic,P2_1,4.0,2,0.1,1.16.2,mp-1080068,-6.943846078,-1.31025841875,,,
45.0,3.0,CuCO3,561.522059938487,3.288400895738604,Triclinic,P1,1.0,1,0.1,1.16.2,mp-758727,-6.947738281555555,-1.3141506223055552,,,
5.0,3.0,CuCO3,58.39017677351736,3.5137372355568783,Monoclinic,Cm,8.0,m,0.1,1.16.2,mp-27249,-6.9327557760000005,-1.2991681167500004,,,['icsd-6179']
20.0,3.0,CuCO3,279.5531014730279,2.935653187015727,Monoclinic,P2_1/c,14.0,2/m,0.1,1.16.2,mp-760595,-6.970161019,-1.3365733597499996,,,
15.0,3.0,CuCO3,185.5245816441246,3.3176369918474435,Hexagonal,P-6,174.0,-6,0.1,1.16.2,mp-760536,-6.9414154660000005,-1.3078278067500009,,,
10.0,3.0,ZnCO3,93.45393807406116,4.4569833415877556,Trigonal,R-3c,167.0,-3m,0.1,1.16.2,mp-9812,-6.8889366039999995,-1.8232415567499998,10.826854130003108,3.412510743333334,['icsd-100679']
40.0,3.0,AsCF3,744.6103725149252,2.56775635979426,Tetragonal,P4_2/nmc,137.0,4/mmm,0.1,1.16.2,mp-27274,-5.41354973875,-1.4891055787499994,,,['icsd-9071']
40.0,3.0,RbCO3,665.1907820163016,2.9052686857483017,Monoclinic,P2_1/c,14.0,2/m,0.1,1.16.2,mp-31271,-6.735221038250001,-1.7253678985000007,,,['icsd-412971']
5.0,3.0,SrCO3,74.53905776639496,3.288793327351459,Trigonal,R32,155.0,32,0.1,1.16.2,mp-1218370,-7.82071605,-2.6690710340833332,,,
10.0,3.0,SrCO3,148.78143430174455,3.2953514255281005,Trigonal,R-3c,167.0,-3m,0.1,1.16.2,mp-38035,-7.82919642,-2.677551404083333,,,
20.0,3.0,SrCO3,258.4475691195478,3.7940934270624274,Orthorhombic,Pnma,62.0,mmm,0.1,1.16.2,mp-3822,-7.8524210275,-2.7007760115833337,8.106457583333333,2.7256490499999995,"['icsd-166088', 'icsd-56099', 'icsd-202793', 'icsd-27293', 'icsd-15195']"
10.0,3.0,SrCO3,140.84579421162286,3.481020603864861,Monoclinic,C2/m,12.0,2/m,0.1,1.16.2,mp-33746,-7.816263382,-2.664618366083333,9.993972516666666,2.6921883833333324,
10.0,3.0,AgCO3,113.34598203986192,4.91885954703674,Trigonal,R-3c,167.0,-3m,0.1,1.16.2,mp-753176,-6.617188799,-1.2369312730833335,,,
5.0,3.0,CdCO3,70.7555627166026,4.046466013647906,Trigonal,R-3m,166.0,-3m,0.1,1.16.2,mp-547864,-3.528635046,1.4696892312499998,,,['icsd-33662']
40.0,3.0,CdCO3,563.0646567828524,4.067880679212037,Monoclinic,P2_1/c,14.0,2/m,0.1,1.16.2,mp-1198558,-6.1947669085,-1.1964426312500003,,,['icsd-172439']
5.0,3.0,CdCO3,64.92625259175497,4.4097721396232865,Trigonal,R-3m,166.0,-3m,0.1,1.16.2,mp-654812,-3.873192376,1.1251319012499998,,,['icsd-33662']
10.0,3.0,CdCO3,115.52902720431366,4.956502910786648,Trigonal,R-3c,167.0,-3m,0.1,1.16.2,mp-4385,-6.761938697,-1.7636144197499994,10.130023423332771,3.320945293333334,"['icsd-156755', 'icsd-156740', 'icsd-20181']"
5.0,3.0,SnCCl3,119.77525694766497,3.2868232870485423,Trigonal,R3m,160.0,3m,0.1,1.16.2,mp-1068985,-3.600492902,0.1562765634999998,,,['icsd-110665']
5.0,3.0,SnCCl3,146.2858768609199,2.691169593371588,Cubic,Pm-3m,221.0,m-3m,0.1,1.16.2,mp-1068389,-3.2397360579999996,0.5170334074999999,,,['icsd-110662']
5.0,3.0,SnCCl3,166.0981478357188,2.3701655248870184,Monoclinic,Cm,8.0,m,0.1,1.16.2,mp-729742,-3.72635763,0.030411835499999994,,,
10.0,3.0,BaCO3,166.95671010843782,3.9253764760918113,Orthorhombic,Imm2,44.0,mm2,0.1,1.16.2,mp-2626703,-7.837690544999999,-2.64014923175,,,
10.0,3.0,BaCO3,173.1642522391652,3.784660713229556,Orthorhombic,Pnn2,34.0,mm2,0.1,1.16.2,mp-675324,-7.8057235789999995,-2.60818226575,13.923362286666665,2.685708183333333,
10.0,3.0,BaCO3,177.2171227211266,3.6981073404325917,Trigonal,R-3c,167.0,-3m,0.1,1.16.2,mp-674478,-7.83164051,-2.6340991967500003,,,
10.0,3.0,BaCO3,164.9460009684019,3.973227229139603,Monoclinic,P2_1,4.0,2,0.1,1.16.2,mp-762225,-7.868310547,-2.6707692337500006,8.611368400000002,2.7314944833333334,
5.0,3.0,BaCO3,88.92776224512441,3.6848332052866493,Trigonal,R32,155.0,32,0.1,1.16.2,mp-1227982,-7.83249692,-2.63495560675,,,
5.0,3.0,BaCO3,75.0831109614839,4.364283352094535,Trigonal,R3m,160.0,3m,0.1,1.16.2,mp-4559,-7.859702646,-2.66216133275,8.60725192999636,2.8269856899999994,"['icsd-158389', 'icsd-158390']"
20.0,3.0,BaCO3,308.7916524320886,4.244725770425251,Orthorhombic,Pnma,62.0,mmm,0.1,1.16.2,mp-5504,-7.881547381,-2.6840060677500004,8.004854326666665,2.7608403866666666,"['icsd-158385', 'icsd-91890', 'icsd-158386', 'icsd-158379', 'icsd-158384', 'icsd-158388', 'icsd-91895', 'icsd-166090', 'icsd-15196', 'icsd-91896', 'icsd-158383', 'icsd-91894', 'icsd-158387', 'icsd-158381', 'icsd-158380', 'icsd-166091', 'icsd-91892', 'icsd-91893', 'icsd-190075', 'icsd-91891', 'icsd-91888', 'icsd-158378', 'icsd-56100', 'icsd-158382', 'icsd-26718', 'icsd-91889']"
10.0,3.0,BaCO3,167.4391229382875,3.9140669807909148,Monoclinic,C2/m,12.0,2/m,0.1,1.16.2,mp-676020,-7.847781473,-2.650240159750001,10.827439720000001,2.7146752500000004,
10.0,3.0,BaCO3,158.49142394289484,4.135037253633823,Monoclinic,P2_1/m,11.0,2/m,0.1,1.16.2,mp-2506699,-7.877129994000001,-2.679588680750001,,,
10.0,3.0,BaCO3,151.32585039685978,4.330839315732281,Monoclinic,P2_1/m,11.0,2/m,0.1,1.16.2,mp-34195,-7.846187791,-2.6486464777500003,,,
10.0,3.0,BaCO3,149.78570995693735,4.375370271127712,Hexagonal,P6_3/mmc,194.0,6/mmm,0.1,1.16.2,mp-545643,-7.777050586,-2.5795092727500006,,,['icsd-91897']
20.0,3.0,EuCO3,255.55419158161837,5.509426855134597,Orthorhombic,Pnma,62.0,mmm,0.1,1.16.2,mp-554518,-9.494560945,-2.629414259750001,,,['icsd-109074']
20.0,3.0,TbCO3,209.9506627673306,6.926367754212036,Monoclinic,P2_1/m,11.0,2/m,0.1,1.16.2,mp-755605,-8.5037398375,-2.7631202922499996,,,
20.0,3.0,YbCO3,206.742141293051,7.487332780008583,Orthorhombic,Pnma,62.0,mmm,0.1,1.16.2,mp-755213,-7.9366646995,-2.8149967182499998,,,
20.0,3.0,YbCO3,236.99460385553758,6.531571547747955,Orthorhombic,Pnma,62.0,mmm,0.1,1.16.2,mp-758329,-7.8870612275,-2.7653932462500004,,,
20.0,3.0,PbCO3,283.00825906007117,6.271347965135263,Monoclinic,P2_1/c,14.0,2/m,0.1,1.16.2,mp-1105697,-7.364302346,-1.80802660675,,,"['icsd-247488', 'icsd-247486', 'icsd-247489', 'icsd-247487']"
20.0,3.0,PbCO3,268.75173301996114,6.604025394102395,Orthorhombic,Pnma,62.0,mmm,0.1,1.16.2,mp-19893,-7.3662652395,-1.80998950025,,,"['icsd-247492', 'icsd-6178', 'icsd-36164', 'icsd-247490', 'icsd-166089', 'icsd-56101', 'icsd-247491', 'icsd-36554', 'icsd-247493', 'icsd-190074']"
20.0,3.0,BiCO3,310.1507491782457,5.760646941280607,Triclinic,P-1,2.0,-1,0.1,1.16.2,mp-1178485,-7.2055584999999995,-1.6237143487499992,,,
20.0,3.0,NaMgH3,219.6967429733817,1.5212967137298623,Orthorhombic,Pnma,62.0,mmm,0.1,1.16.2,mp-23730,-2.9285796834999998,-0.30838298781034473,12.521534786666663,3.6289585833333327,"['icsd-168357', 'icsd-159174', 'icsd-158251', 'icsd-159898', 'icsd-168356', 'icsd-182967', 'icsd-184379', 'icsd-90282', 'icsd-158280', 'icsd-91795', 'icsd-180350', 'icsd-163200', 'icsd-159720']"
5.0,3.0,NaMgO3,64.85162171421845,2.439996010571015,Cubic,Pm-3m,221.0,m-3m,0.1,1.16.2,mp-976775,-4.949683258,-1.3971089625603454,,,
10.0,3.0,NaMgF3,107.30644050924076,3.227720225613403,Orthorhombic,Cmcm,63.0,mmm,0.1,1.16.2,mp-12948,-5.1999651469999995,-3.4685166978103448,,,['icsd-156157']
20.0,3.0,NaMgF3,220.21913509636192,3.1455501650090683,Orthorhombic,Pnma,62.0,mmm,0.1,1.16.2,mp-2955,-5.2313661745,-3.4999177253103446,7.724504083333334,1.9483686433333334,"['icsd-171806', 'icsd-156858', 'icsd-156860', 'icsd-156857', 'icsd-171810', 'icsd-158924', 'icsd-156856', 'icsd-156873', 'icsd-158923', 'icsd-158921', 'icsd-156863', 'icsd-156869', 'icsd-156865', 'icsd-158920', 'icsd-156862', 'icsd-158919', 'icsd-171808', 'icsd-156854', 'icsd-75293', 'icsd-158925', 'icsd-158930', 'icsd-158931', 'icsd-72318', 'icsd-156864', 'icsd-171811', 'icsd-75292', 'icsd-156855', 'icsd-171809', 'icsd-155814', 'icsd-171812', 'icsd-193087', 'icsd-158928', 'icsd-158929', 'icsd-158927', 'icsd-156872', 'icsd-156859', 'icsd-75291', 'icsd-158922', 'icsd-158926', 'icsd-156868', 'icsd-156867', 'icsd-156870', 'icsd-156866', 'icsd-94085', 'icsd-156874', 'icsd-94084', 'icsd-156156', 'icsd-171807', 'icsd-290980', 'icsd-156853', 'icsd-156871', 'icsd-156861', 'icsd-90283']"
5.0,3.0,NaMgF3,61.66915483455445,2.8081718429533926,Cubic,Pm-3m,221.0,m-3m,0.1,1.16.2,mp-560399,-5.189718372,-3.458269922810345,,,"['icsd-193088', 'icsd-193089', 'icsd-171813']"
5.0,3.0,NaAlO3,52.919372158527665,3.0741520266525155,Cubic,Pm-3m,221.0,m-3m,0.1,1.16.2,mp-1186097,-6.112593596,-2.130960144560345,,,
5.0,3.0,NaSiO3,45.165596736968496,3.64249291692359,Cubic,Pm-3m,221.0,m-3m,0.1,1.16.2,mp-1186167,-6.67670851,-2.359126618560345,,,
30.0,3.0,NaPO3,372.3163392445141,2.728509392289948,Triclinic,P-1,2.0,-1,0.1,1.16.2,mp-864891,-6.954944455666667,-2.6397656688936793,,,['icsd-174021']
40.0,3.0,NaPO3,505.4309870103661,2.6798742845600594,Monoclinic,P2_1/c,14.0,2/m,0.1,1.16.2,mp-558192,-6.95160738875,-2.6364286019770113,,,['icsd-15871']
60.0,3.0,NaPO3,788.6158193446041,2.5763333770705397,Orthorhombic,Pnma,62.0,mmm,0.1,1.16.2,mp-555118,-6.956924663500001,-2.641745876727012,,,['icsd-18139']
40.0,3.0,NaPO3,565.0118887456335,2.3972796532050977,Tetragonal,I4_1/a,88.0,4/m,0.1,1.16.2,mp-648053,-6.926645526,-2.6114667392270112,,,['icsd-35198']
40.0,3.0,NaPO3,598.4600564804748,2.2632947513232757,Tetragonal,I4_1/a,88.0,4/m,0.1,1.16.2,mp-648072,-6.9066649305,-2.5914861437270114,,,['icsd-35197']
40.0,3.0,NaPO3,510.7728274098804,2.6518472244842997,Monoclinic,P2_1/c,14.0,2/m,0.1,1.16.2,mp-4734,-6.949052894499999,-2.633874107727011,,,"['icsd-34693', 'icsd-15440']"
5.0,3.0,NaPF3,108.11031678827725,1.7042899279707355,Triclinic,P1,1.0,1,0.1,1.16.2,mp-35683,-4.699126028,-2.2050730874770115,5.138926180000002,1.957359673333334,
20.0,3.0,NaPS3,485.66588787613205,2.053626689443856,Monoclinic,P2_1/m,11.0,2/m,0.1,1.16.2,mp-1189520,-4.6998153905,-0.8707799103520116,,,['icsd-426906']
5.0,3.0,KNaO3,87.51495972475456,2.088814888455919,Cubic,Pm-3m,221.0,m-3m,0.1,1.16.2,mp-973968,-3.959771542,-0.5051734671603448,,,
10.0,3.0,NaCaH3,146.43154147327678,1.498962107056017,Triclinic,P-1,2.0,-1,0.1,1.16.2,mp-1078750,-3.151041909,-0.44978124731034475,,,['icsd-168714']
10.0,3.0,NaCaH3,151.7447053882922,1.4464776967643616,Trigonal,R3c,161.0,3m,0.1,1.16.2,mp-1078933,-3.145119177,-0.443858515310345,,,['icsd-168715']
20.0,3.0,NaCaN3,398.38407986385585,1.7521032710426447,Orthorhombic,Fddd,70.0,mmm,0.1,1.16.2,mp-1221112,-4.4214180955,1.2461038941896554,,,
5.0,3.0,NaCaO3,91.52885364358447,2.014986243326152,Cubic,Pm-3m,221.0,m-3m,0.1,1.16.2,mp-1186118,-4.958331354,-1.3246930925603444,,,
5.0,3.0,NaTiO3,59.42551848449956,3.3211880145473653,Cubic,Pm-3m,221.0,m-3m,0.1,1.16.2,mp-977123,-7.456027912000001,-2.6444112232270123,,,
5.0,3.0,NaTiF3,71.89368464879401,2.953016064060077,Cubic,Pm-3m,221.0,m-3m,0.1,1.16.2,mp-1120777,-5.915472468,-2.924981625477012,,,
20.0,3.0,NaVO3,316.5071104649094,2.558787975560403,Monoclinic,C2/c,15.0,2/m,0.1,1.16.2,mp-1101657,-7.3867767055,-2.3374772060603446,,,
20.0,3.0,NaVO3,274.58999218475816,2.9493958683390518,Orthorhombic,Pnma,62.0,mmm,0.1,1.16.2,mp-555665,-7.428562236,-2.379262736560345,,,['icsd-29450']
20.0,3.0,NaVO3,276.5910460483419,2.9280578674098883,Monoclinic,C2/c,15.0,2/m,0.1,1.16.2,mp-19083,-7.429649651000001,-2.3803501515603456,,,"['icsd-63479', 'icsd-4137', 'icsd-63480', 'icsd-20556', 'icsd-2103']"
5.0,3.0,NaVO3,53.745207954482915,3.767194412583095,Cubic,Pm-3m,221.0,m-3m,0.1,1.16.2,mp-1099591,-7.287729564,-2.2384300645603448,,,
20.0,3.0,NaVO3,316.272602298033,2.560685252381771,Orthorhombic,Ibam,72.0,mmm,0.1,1.16.2,mp-763901,-7.386636209000001,-2.3373367095603457,,,
20.0,3.0,NaVF3,240.02797524993014,3.6230532346280424,Orthorhombic,Pnma,62.0,mmm,0.1,1.16.2,mp-1120756,-6.22392806,-2.995754406810345,7.558269186666667,2.2494973500000017,
5.0,3.0,NaVF3,72.39893494667842,3.0029244655703904,Cubic,Pm-3m,221.0,m-3m,0.1,1.16.2,mp-20572,-6.132578152000001,-2.904404498810346,,,['icsd-60611']
5.0,3.0,NaCrO3,52.65299502293593,3.8785989575696806,Cubic,Pm-3m,221.0,m-3m,0.1,1.16.2,mp-1076642,-6.8758701779999996,-1.7127423985603443,,,