nsites,nelements,formula_pretty,volume,density,crystal_system,symbol,number,point_group,symprec,version,material_id,energy_per_atom,formation_energy_per_atom,e_total,e_electronic,icsd
5.0,3.0,GdCoO3,54.93503924339065,7.98549583486763,Cubic,Pm-3m,221.0,m-3m,0.1,1.16.2,mp-20951,-9.540154408,-2.335253174249999,,,
20.0,3.0,TbCoO3,205.64415112513473,8.586979182753064,Orthorhombic,Pnma,62.0,mmm,0.1,1.16.2,mp-19802,-7.9451875995,-2.6286375937499997,,,"['icsd-190948', 'icsd-190946', 'icsd-190947', 'icsd-172046', 'icsd-23657']"
20.0,3.0,DyCoO3,203.8572689897275,8.778717764311475,Orthorhombic,Pnma,62.0,mmm,0.1,1.16.2,mp-22137,-7.927326137,-2.61629198325,,,"['icsd-172047', 'icsd-23658', 'icsd-190949', 'icsd-190951', 'icsd-190950']"
20.0,3.0,HoCoO3,268.29687484690714,6.730410091104782,Orthorhombic,Pnma,62.0,mmm,0.1,1.16.2,mp-1188609,-7.5257848255,-2.21962626575,,,
20.0,3.0,HoCoO3,203.43872145083407,8.876127322290039,Orthorhombic,Pnma,62.0,mmm,0.1,1.16.2,mp-20570,-7.946192691,-2.64003413125,,,"['icsd-172048', 'icsd-23659']"
20.0,3.0,ErCoO3,201.45109439388898,9.040484271457935,Orthorhombic,Pnma,62.0,mmm,0.1,1.16.2,mp-562779,-7.962130946499999,-2.65891039875,,,['icsd-172049']
20.0,3.0,TmCoO3,215.82653245179552,8.48988507631344,Orthorhombic,Pnma,62.0,mmm,0.1,1.16.2,mp-561954,-7.929291277999999,-2.644447407583333,,,['icsd-172050']
20.0,3.0,YbCoO3,191.9333763645697,9.688850323665113,Orthorhombic,Pnma,62.0,mmm,0.1,1.16.2,mp-687081,-6.878148291,-2.1805498492499993,,,['icsd-172051']
20.0,3.0,LuCoO3,201.7678731337942,9.280036319735288,Orthorhombic,Pnma,62.0,mmm,0.1,1.16.2,mp-550950,-7.939461358,-2.6455944682499997,,,['icsd-172052']
20.0,3.0,HfCoO3,229.81662368908226,8.249244449473402,Orthorhombic,Pnma,62.0,mmm,0.1,1.16.2,mp-753534,-9.212655324,-2.8315407322499992,,,
20.0,3.0,CoWN3,282.54399380165324,6.695033731068769,Triclinic,P-1,2.0,-1,0.1,1.16.2,mp-1247505,-9.052203669499999,-0.037017109499998924,,,
5.0,3.0,CoAuO3,54.82851821037035,9.203867949631238,Cubic,Pm-3m,221.0,m-3m,0.1,1.16.2,mp-1183686,-5.270631246000001,-0.22617806025000106,,,
10.0,3.0,TlCoO3,116.90235340971311,8.84413697374225,Trigonal,R-3,148.0,-3,0.1,1.16.2,mp-755788,-5.967864613000001,-1.1056591979166668,,,
20.0,3.0,TlCoO3,232.6166094308966,8.88930870962134,Orthorhombic,Pnma,62.0,mmm,0.1,1.16.2,mp-756464,-5.9446741835,-1.0824687684166663,,,
20.0,3.0,TlCoO3,228.34288850076067,9.055683169260453,Triclinic,P-1,2.0,-1,0.1,1.16.2,mp-770614,-5.9334327369999995,-1.0712273219166661,,,
5.0,3.0,TlCoF3,74.10504154645177,7.177515697688809,Cubic,Pm-3m,221.0,m-3m,0.1,1.16.2,mp-998160,-5.042304014000001,-2.0012244451666676,,,
30.0,3.0,TlCoCl3,729.6611636242836,5.047772571831284,Hexagonal,P6_3cm,185.0,6mm,0.1,1.16.2,mp-567430,-4.0097369086666665,-1.0064227243333335,,,['icsd-155190']
10.0,3.0,TlCoCl3,243.6142718966972,5.039611157695193,Hexagonal,P6_3/mmc,194.0,6/mmm,0.1,1.16.2,mp-569753,-4.124859668,-1.1215454836666665,,,['icsd-155189']
40.0,3.0,TlCoCl3,978.5949496811734,5.018301814144362,Orthorhombic,Pbca,61.0,mmm,0.1,1.16.2,mp-567620,-4.1272699799999994,-1.1239557956666666,,,['icsd-155191']
10.0,3.0,TlCoCl3,254.2104701563662,4.829546171206905,Monoclinic,C2/m,12.0,2/m,0.1,1.16.2,mp-2353285,-4.130708261,-1.1273940766666661,,,
40.0,3.0,CoPbO3,443.8019890028436,9.402886266734846,Orthorhombic,Pbam,55.0,mmm,0.1,1.16.2,mp-770488,-6.31544372475,-1.1832375249999998,,,
20.0,3.0,CoPbO3,254.27265632214193,8.205797052471079,Trigonal,R-3,148.0,-1,0.1,1.16.2,mp-1178420,-6.4182856405,-1.2860794407499996,,,
20.0,3.0,CoPbO3,218.68003110633003,9.541382462844483,Orthorhombic,Pnma,62.0,mmm,0.1,1.16.2,mp-755569,-6.3287549965,-1.1965487967499997,,,
20.0,3.0,CoBiO3,225.4877037010106,9.305764679617505,Orthorhombic,Pnma,62.0,mmm,0.1,1.16.2,mp-1188346,-6.550150727,-1.3923761152500007,,,['icsd-247467']
5.0,3.0,CoBiO3,55.77490557004568,9.40537454677399,Tetragonal,P4mm,99.0,4mm,0.1,1.16.2,mp-545522,-6.632379521999999,-1.4746049102499996,41.92282452,6.6816090599999995,"['icsd-157833', 'icsd-247466']"
5.0,3.0,PaCoO3,54.1024933511181,10.373049902297106,Cubic,Pm-3m,221.0,m-3m,0.1,1.16.2,mp-1186400,-8.596396256,-2.3037865382500002,,,
20.0,3.0,UCoS3,339.59898733144945,7.689689975743918,Orthorhombic,Pnma,62.0,mmm,0.1,1.16.2,mp-1105902,-7.423551773,-1.2617362918750004,,,
20.0,3.0,UCoSe3,398.2120878761391,8.904457677077925,Orthorhombic,Pnma,62.0,mmm,0.1,1.16.2,mp-1188226,-6.811330917499999,-1.0338384699062502,,,['icsd-625010']
10.0,2.0,Ni2O3,132.33067275079378,4.150636399269626,Monoclinic,Cc,9.0,m,0.1,1.16.2,mp-1220143,-5.866685295,-0.58661739625,,,
20.0,2.0,Ni2O3,205.35368662354134,5.34937079621259,Orthorhombic,Cmcm,63.0,mmm,0.1,1.16.2,mp-1043875,-6.0439900280000005,-0.7639221292500004,,,
20.0,3.0,ZnNiO3,192.01812681303318,5.953183158870451,Orthorhombic,Pnma,62.0,mmm,0.1,1.16.2,mp-1378884,-5.408729711,-1.0327404262500004,,,
5.0,3.0,GaNiO3,49.484259465906604,5.919929658044955,Cubic,Pm-3m,221.0,m-3m,0.1,1.16.2,mp-1183983,-5.381211794,-0.6515520267500001,,,
5.0,3.0,NiAsO3,50.50426706330274,5.97129373706661,Cubic,Pm-3m,221.0,m-3m,0.1,1.16.2,mp-976763,-5.583455896,-0.5275916522500005,,,
5.0,3.0,RbNiO3,66.52489446797706,4.796523065031163,Cubic,Pm-3m,221.0,m-3m,0.1,1.16.2,mp-975373,-4.971713716,-0.6515663387499998,,,
30.0,3.0,RbNiF3,420.4561769345898,4.766652435548675,Hexagonal,P6_3/mmc,194.0,6/mmm,0.1,1.16.2,mp-556488,-5.116213329999999,-2.6171917989999995,,,"['icsd-15090', 'icsd-410391', 'icsd-16267', 'icsd-22127', 'icsd-410390', 'icsd-16268', 'icsd-91834']"
10.0,3.0,RbNiCl3,247.98095497605672,3.35508490248867,Hexagonal,P6_3/mmc,194.0,6/mmm,0.1,1.16.2,mp-23486,-4.01275916,-1.5515030134999996,10.279094026678838,3.5012154399999993,"['icsd-15010', 'icsd-60261']"
10.0,3.0,RbNiBr3,292.0606172205687,4.365096884934357,Hexagonal,P6_3/mmc,194.0,6/mmm,0.1,1.16.2,mp-27409,-3.6002296219999996,-1.3162784734999995,10.532957903389168,4.146631553333333,['icsd-15011']
20.0,3.0,SrNiO3,237.62582013820384,5.431430013891443,Orthorhombic,Pmma,51.0,mmm,0.1,1.16.2,mp-1291939,-6.2211368685,-1.759197615083334,,,
20.0,3.0,SrNiO3,238.47903102811648,5.4119978851391926,Trigonal,R-3m,166.0,-3m,0.1,1.16.2,mp-1299294,-6.2194994765,-1.757560223083334,,,
5.0,3.0,SrNiO3,57.02413804031096,5.658340730472058,Monoclinic,C2,5.0,2,0.1,1.16.2,mp-752649,-6.203257982,-1.7413187285833338,,,
20.0,3.0,SrNiO3,236.18963103060793,5.464456699231451,Orthorhombic,Pnma,62.0,mmm,0.1,1.16.2,mp-1101421,-6.2252305455,-1.7632912920833335,,,
20.0,3.0,SrNiO3,235.068733435189,5.490513318012392,Orthorhombic,Cmmm,65.0,mmm,0.1,1.16.2,mp-1281591,-6.2143859635,-1.7524467100833334,,,
10.0,3.0,SrNiO3,118.50465607365828,5.445558235163306,Cubic,Pm-3m,221.0,m-3m,0.1,1.16.2,mp-762506,-6.22725944,-1.765320186583334,,,
20.0,3.0,YNiO3,210.04992412781706,6.185143049224782,Orthorhombic,Pnma,62.0,mmm,0.1,1.16.2,mp-19242,-7.892334481000001,-2.474999695583334,,,"['icsd-92047', 'icsd-88043', 'icsd-191794', 'icsd-89417']"
30.0,3.0,YNiO3,375.84041756987244,5.185134837052863,Hexagonal,P6_3cm,185.0,6mm,0.1,1.16.2,mp-1346989,-7.821909746666666,-2.4045749612499994,,,
5.0,3.0,YNiO3,53.025242522589764,6.125331853295538,Cubic,Pm-3m,221.0,m-3m,0.1,1.16.2,mp-1433326,-7.682370101999998,-2.265035316583332,,,
10.0,3.0,YNiO3,123.87001707331976,5.24416181940283,Hexagonal,P6_3/mmc,194.0,6/mmm,0.1,1.16.2,mp-1399857,-7.637785980000001,-2.2204511945833345,,,
10.0,3.0,ZrNiH3,78.83576680471417,6.4428845179515335,Orthorhombic,Cmcm,63.0,mmm,0.1,1.16.2,mp-29658,-5.438467611,-0.5372645220000003,,,"['icsd-658750', 'icsd-638406', 'icsd-43277']"
5.0,3.0,ZrNiO3,50.26469396929328,6.538318643506497,Cubic,Pm-3m,221.0,m-3m,0.1,1.16.2,mp-1188025,-7.6005378640000005,-1.7669571752500004,,,
20.0,3.0,NiMoN3,372.19982490418556,3.5094140027356135,Triclinic,P-1,2.0,-1,0.1,1.16.2,mp-1246271,-8.229354305,0.09770000799999963,,,
5.0,3.0,NiMoO3,60.589080202351056,5.5534377944659425,Cubic,Pm-3m,221.0,m-3m,0.1,1.16.2,mp-977100,-7.057808574000001,-0.7646379892500008,,,
5.0,3.0,NiRuO3,51.38110012193622,6.7144582836993925,Cubic,Pm-3m,221.0,m-3m,0.1,1.16.2,mp-976848,-6.140766374,-0.16184530324999996,,,
5.0,3.0,NiPdO3,50.24692203567436,7.042822187086094,Cubic,Pm-3m,221.0,m-3m,0.1,1.16.2,mp-1186345,-5.303599805999999,-0.14358288124999988,,,
5.0,3.0,NiAgF3,64.1899796712093,5.783220649807447,Cubic,Pm-3m,221.0,m-3m,0.1,1.16.2,mp-998365,-4.702922782,-1.8334968648333336,,,
5.0,3.0,NiAgF3,82.154028290048,4.518644108778625,Cubic,Pm-3m,221.0,m-3m,0.1,1.16.2,mp-1209766,-3.769799054,-0.9003731368333334,,,
10.0,3.0,NiAgF3,127.18444673047424,5.837581960504137,Orthorhombic,Cmcm,63.0,mmm,0.1,1.16.2,mp-998429,-4.7291842840000005,-1.8597583668333335,,,
20.0,3.0,NiSnO3,231.0668176468014,6.4793061381278365,Trigonal,R-3,148.0,-3,0.1,1.16.2,mp-754654,-6.652262607,-1.7263076732500005,,,
5.0,3.0,NiSbO3,54.94858203961168,6.903777905566449,Cubic,Pm-3m,221.0,m-3m,0.1,1.16.2,mp-1186113,-5.907621585999999,-0.95778077525,,,
10.0,3.0,CsNiF3,259.15260821120165,3.185768830920607,Hexagonal,P6_3/mmc,194.0,6/mmm,0.1,1.16.2,mp-611601,-4.996096079,-2.5141008880862072,,,
30.0,3.0,CsNiF3,475.63212640576825,5.207387742686004,Hexagonal,P6_3/mmc,194.0,6/mmm,0.1,1.16.2,mp-1194078,-5.062250362666666,-2.5802551717528734,,,['icsd-410392']
10.0,3.0,CsNiF3,172.8264126890776,4.777049345902455,Hexagonal,P6_3/mmc,194.0,6/mmm,0.1,1.16.2,mp-557772,-5.090860699,-2.608865508086207,17.698380970032055,2.305938616666666,"['icsd-410394', 'icsd-15092', 'icsd-61278']"
15.0,3.0,CsNiF3,253.07704732558184,4.893373245908569,Trigonal,R-3m,166.0,-3m,0.1,1.16.2,mp-505492,-5.083441507333333,-2.60144631641954,,,['icsd-410393']
10.0,3.0,CsNiCl3,267.332248416491,3.7015411063265193,Hexagonal,P6_3/mmc,194.0,6/mmm,0.1,1.16.2,mp-22950,-4.021991390999999,-1.5777615845862065,9.969915773331557,3.479726076666664,"['icsd-60262', 'icsd-423828', 'icsd-59371']"
10.0,3.0,CsNiBr3,310.32491166107127,4.615862230298165,Hexagonal,P6_3/mmc,194.0,6/mmm,0.1,1.16.2,mp-1080570,-3.6158858240000002,-1.3489610155862066,9.912305011182621,3.874171008932754,['icsd-423829']
10.0,3.0,BaNiO3,133.449151553611,6.072761251153483,Hexagonal,P6_3/mmc,194.0,6/mmm,0.1,1.16.2,mp-19138,-6.328400857,-1.8205653062499998,,,"['icsd-175', 'icsd-30661']"
10.0,3.0,BaNiO3,133.5298435547286,6.06909148531972,Hexagonal,P6_3mc,186.0,6mm,0.1,1.16.2,mp-19241,-6.328540503,-1.82070495225,203.57420196004787,5.847281376666667,['icsd-15761']
5.0,3.0,BaNiO3,65.48415898349904,6.187792965000027,Cubic,Pm-3m,221.0,m-3m,0.1,1.16.2,mp-1120765,-6.204349126,-1.6965135752500005,,,
10.0,3.0,BaNiCl3,229.1948669016096,4.38153623091933,Hexagonal,P6_3mc,186.0,6mm,0.1,1.16.2,mp-1096852,-4.450619522999999,-1.8016752029999996,,,
5.0,3.0,LaNiO3,57.378419163664574,7.10761180460951,Cubic,Pm-3m,221.0,m-3m,0.1,1.16.2,mp-1075921,-7.548532023999999,-2.4372900402499993,,,
20.0,3.0,LaNiO3,230.37032604144088,7.0811816154504585,Orthorhombic,Cmmm,65.0,mmm,0.1,1.16.2,mp-1278441,-7.540139836,-2.4288978522500004,,,
10.0,3.0,LaNiO3,112.43959122238896,7.254091284819418,Trigonal,R-3c,167.0,-3m,0.1,1.16.2,mp-19339,-7.58371008,-2.47246809625,,,"['icsd-187087', 'icsd-173477', 'icsd-91042', 'icsd-67714', 'icsd-84933', 'icsd-67716', 'icsd-67717', 'icsd-93919', 'icsd-67715', 'icsd-187088']"
20.0,3.0,LaNiO3,232.95169096396123,7.0027142140914895,Triclinic,P-1,2.0,-1,0.1,1.16.2,mp-1284950,-7.5638215065,-2.45257952275,,,
5.0,3.0,CeNiO3,54.242728695214055,7.555550238569517,Cubic,Pm-3m,221.0,m-3m,0.1,1.16.2,mp-866095,-7.708842996000001,-2.3981846022500015,,,
20.0,3.0,CeNiO3,233.389042111955,7.024042911786611,Orthorhombic,Pnma,62.0,mmm,0.1,1.16.2,mp-776207,-8.0604770275,-2.7498186337499995,,,
10.0,3.0,PrNiO3,110.65153943462886,7.431405465962988,Trigonal,R-3c,167.0,-3m,0.1,1.16.2,mp-19170,-7.486645718,-2.40642400425,,,"['icsd-69187', 'icsd-69186']"
20.0,3.0,PrNiO3,222.64609009835596,7.386578893960931,Orthorhombic,Pnma,62.0,mmm,0.1,1.16.2,mp-22280,-7.490565824999999,-2.410344111249999,,,"['icsd-246703', 'icsd-67720', 'icsd-246702', 'icsd-69184', 'icsd-69185', 'icsd-92201', 'icsd-67721', 'icsd-69787', 'icsd-69183', 'icsd-67719', 'icsd-67718', 'icsd-69786', 'icsd-246704', 'icsd-246701']"
20.0,3.0,NdNiO3,220.61318188350728,7.555034424780734,Orthorhombic,Pnma,62.0,mmm,0.1,1.16.2,mp-22106,-7.503700136500001,-2.426030087250001,,,"['icsd-67724', 'icsd-416213', 'icsd-69788', 'icsd-416212', 'icsd-155746', 'icsd-78319', 'icsd-164825', 'icsd-164562', 'icsd-155747', 'icsd-155748', 'icsd-67722', 'icsd-24875', 'icsd-67723', 'icsd-67725']"
20.0,3.0,SmNiO3,216.98020304035126,7.8688141673949366,Orthorhombic,Pnma,62.0,mmm,0.1,1.16.2,mp-22495,-7.521469400999999,-2.453711611249999,,,"['icsd-96034', 'icsd-56609', 'icsd-56610', 'icsd-97652', 'icsd-97645', 'icsd-97655', 'icsd-97648', 'icsd-96035', 'icsd-96033', 'icsd-96036', 'icsd-97654', 'icsd-97641', 'icsd-97642', 'icsd-97646', 'icsd-97644', 'icsd-90959', 'icsd-96037', 'icsd-97650', 'icsd-97651', 'icsd-97653', 'icsd-69789', 'icsd-97647', 'icsd-88038', 'icsd-97649', 'icsd-96032', 'icsd-97643', 'icsd-97640']"
5.0,3.0,SmNiO3,54.6134402222849,7.815735873710142,Cubic,Pm-3m,221.0,m-3m,0.1,1.16.2,mp-1099668,-7.399777066000001,-2.3320192762500014,,,
5.0,3.0,EuNiO3,54.54536765826052,7.874320900829366,Cubic,Pm-3m,221.0,m-3m,0.1,1.16.2,mp-977412,-8.185839854,-2.0103989312499997,,,
20.0,3.0,EuNiO3,215.03561772695772,7.989517887966484,Orthorhombic,Pnma,62.0,mmm,0.1,1.16.2,mp-20718,-8.257220939000002,-2.0817800162500015,,,"['icsd-88039', 'icsd-91047', 'icsd-56611', 'icsd-80400']"
20.0,3.0,GdNiO3,214.9801926295192,8.154897113823294,Orthorhombic,Pnma,62.0,mmm,0.1,1.16.2,mp-505604,-9.389624715,-2.450359704249999,,,['icsd-88040']
20.0,3.0,TbNiO3,211.05097957634084,8.359446103714426,Orthorhombic,Pnma,62.0,mmm,0.1,1.16.2,mp-755865,-7.545764435999999,-2.494850653249999,,,
5.0,3.0,TbNiO3,52.25900745238172,8.440024863236033,Cubic,Pm-3m,221.0,m-3m,0.1,1.16.2,mp-1187352,-7.347095931999999,-2.2961821492499994,,,
10.0,3.0,TbNiO3,108.19253637657697,8.15337798701662,Trigonal,R-3c,167.0,-3m,0.1,1.16.2,mp-770347,-7.504032710999999,-2.4531189282499994,,,
20.0,3.0,DyNiO3,209.4585969454163,8.53635371800083,Orthorhombic,Pnma,62.0,mmm,0.1,1.16.2,mp-19265,-7.549553843500002,-2.5041559127500017,,,"['icsd-162114', 'icsd-87803', 'icsd-162115', 'icsd-162116']"
20.0,3.0,HoNiO3,207.60973411099758,8.690128359082701,Orthorhombic,Pnma,62.0,mmm,0.1,1.16.2,mp-18974,-7.551576216000001,-2.511053879250001,,,"['icsd-24876', 'icsd-191793']"
20.0,3.0,ErNiO3,205.77977925513696,8.842572876016028,Orthorhombic,Pnma,62.0,mmm,0.1,1.16.2,mp-18983,-7.555905561,-2.5183212362500003,,,"['icsd-191795', 'icsd-92048']"
20.0,3.0,ErNiO3,213.8945756855631,8.507100699687618,Monoclinic,P2_1/c,14.0,2/m,0.1,1.16.2,mp-1189736,-7.5543288539999995,-2.516744529249999,,,['icsd-191791']
20.0,3.0,TmNiO3,211.52687155397024,8.65492732731107,Monoclinic,P2_1/c,14.0,2/m,0.1,1.16.2,mp-1106304,-7.548522843000001,-2.529315195583334,,,"['icsd-189289', 'icsd-92049', 'icsd-189291']"
20.0,3.0,TmNiO3,203.77587181393056,8.98413381710249,Orthorhombic,Pnma,62.0,mmm,0.1,1.16.2,mp-19002,-7.54801587,-2.5288082225833337,,,"['icsd-189295', 'icsd-189290', 'icsd-189296']"
5.0,3.0,YbNiH3,40.13592388402698,9.712584070639771,Cubic,Pm-3m,221.0,m-3m,0.1,1.16.2,mp-1018647,-4.168544131999999,-0.6689595129999993,,,['icsd-638405']
5.0,3.0,YbNiO3,51.88856429991843,8.951977304241092,Cubic,Pm-3m,221.0,m-3m,0.1,1.16.2,mp-1187595,-6.329997616,-1.8980353972499997,,,
20.0,3.0,YbNiO3,192.09456092614067,9.6724289896188,Orthorhombic,Pnma,62.0,mmm,0.1,1.16.2,mp-19249,-6.411270301499999,-1.9793080827499991,,,"['icsd-189299', 'icsd-151949', 'icsd-189292', 'icsd-92050', 'icsd-189293', 'icsd-189294', 'icsd-189298', 'icsd-189297']"
20.0,3.0,LuNiO3,209.4798371692059,8.93078999991922,Monoclinic,P2_1/c,14.0,2/m,0.1,1.16.2,mp-1105866,-7.563221223499999,-2.5349905567499995,,,['icsd-191792']
20.0,3.0,LuNiO3,200.82217848352906,9.315805899042624,Orthorhombic,Pnma,62.0,mmm,0.1,1.16.2,mp-19327,-7.564602390499999,-2.536371723749999,,,"['icsd-191796', 'icsd-92051']"
20.0,3.0,HfNiO3,216.25322779642678,8.759271576214951,Monoclinic,P2_1/c,14.0,2/m,0.1,1.16.2,mp-1178219,-8.918519201,-2.8030408322500007,,,
5.0,3.0,NiPtO3,61.83793399368838,8.10360470965608,Cubic,Pm-3m,221.0,m-3m,0.1,1.16.2,mp-1186112,-5.1398230300000005,0.1984441967499997,,,
20.0,3.0,TlNiO3,223.64114407224048,9.238944403214674,Monoclinic,P2_1/c,14.0,2/m,0.1,1.16.2,mp-1178989,-5.5623652445,-0.9657960524166661,,,['icsd-95948']
5.0,3.0,TlNiO3,57.6729815206356,8.956568751415498,Monoclinic,Pm,6.0,m,0.1,1.16.2,mp-998781,-5.33315619,-0.7365869979166668,,,
5.0,3.0,TlNiO3,54.434170789211265,9.489480901416941,Orthorhombic,Amm2,38.0,mm2,0.1,1.16.2,mp-1403003,-5.271887158,-0.6753179659166662,,,
10.0,3.0,TlNiO3,109.31815844005023,9.450434062552635,Trigonal,R3c,161.0,3m,0.1,1.16.2,mp-998845,-5.535411979,-0.9388427869166662,,,
5.0,3.0,TlNiO3,54.43417050466772,9.489480951021271,Monoclinic,Cm,8.0,m,0.1,1.16.2,mp-1097917,-5.27181955,-0.6752503579166664,,,
20.0,3.0,TlNiO3,225.19137756897152,9.175342851312838,Orthorhombic,Pnma,62.0,mmm,0.1,1.16.2,mp-18001,-5.563698480499999,-0.9671292884166661,,,['icsd-93507']
5.0,3.0,TlNiF3,68.28540381625542,7.783389718866116,Cubic,Pm-3m,221.0,m-3m,0.1,1.16.2,mp-998761,-4.957876744,-2.182433398166667,,,
10.0,3.0,TlNiCl3,238.9284548899522,5.135113879418603,Hexagonal,P6_3/mmc,194.0,6/mmm,0.1,1.16.2,mp-1205652,-3.8872893239999997,-1.1496113626666662,112.89660265333333,4.483071546666672,
5.0,3.0,NiPbO3,55.33047026641992,9.420293410987233,Cubic,Pm-3m,221.0,m-3m,0.1,1.16.2,mp-974108,-5.78969708,-0.9231271032499997,,,
10.0,3.0,NiPbO3,117.63280280756855,8.86197135556213,Trigonal,R3c,161.0,3m,0.1,1.16.2,mp-1078668,-6.15665555,-1.2900855732499998,,,"['icsd-187685', 'icsd-187684', 'icsd-187686']"
5.0,3.0,NiBiO3,59.39466570278917,8.825467439361974,Monoclinic,Cm,8.0,m,0.1,1.16.2,mp-998363,-6.129619996000001,-1.2374816072500003,,,
20.0,3.0,NiBiO3,239.41795799438046,8.757667012498013,Monoclinic,P2_1/m,11.0,2/m,0.1,1.16.2,mp-25096,-6.2361217595,-1.34398337075,,,
10.0,3.0,NiBiO3,113.53038155551553,9.234280393489774,Trigonal,R3,146.0,3,0.1,1.16.2,mp-998527,-6.257382958,-1.3652445692500002,,,
20.0,3.0,NiBiO3,244.8404323740434,8.563711199969706,Triclinic,P-1,2.0,-1,0.1,1.16.2,mp-1105718,-6.247645475000001,-1.3555070862500003,,,"['icsd-97768', 'icsd-245818', 'icsd-245817']"
5.0,3.0,AcNiO3,58.35821779959113,9.494942767086057,Cubic,Pm-3m,221.0,m-3m,0.1,1.16.2,mp-1183139,-7.404515516000001,-2.456239951750001,,,
20.0,3.0,UNiS3,349.6838739129457,7.463364391356659,Orthorhombic,Pnma,62.0,mmm,0.1,1.16.2,mp-1189264,-7.177297923499999,-1.281118665375,,,['icsd-248408']
20.0,3.0,UNiSe3,408.48947071885175,8.676527012789041,Orthorhombic,Pnma,62.0,mmm,0.1,1.16.2,mp-1188256,-6.5712861799999995,-1.0594299554062503,,,['icsd-646553']
5.0,3.0,PuNiO3,53.90057700340984,10.803912212138673,Cubic,Pm-3m,221.0,m-3m,0.1,1.16.2,mp-1188081,-9.139632452,-2.1620242232500004,,,
40.0,2.0,Cu2O3,389.0036711714401,5.9792570368966365,Cubic,Ia-3,206.0,m-3,0.1,1.16.2,mp-771359,-5.44158827925,-0.8338923844999997,,,
20.0,2.0,Cu2O3,218.65332107880573,5.318814566260697,Monoclinic,P2_1/c,14.0,2/m,0.1,1.16.2,mp-755928,-5.067419124500001,-0.45972322974999996,,,
20.0,2.0,Cu2O3,214.7943058118773,5.414372903040528,Orthorhombic,Cmcm,63.0,mmm,0.1,1.16.2,mp-1046820,-5.2606618725,-0.6529659777499994,,,
20.0,2.0,Cu2O3,269.5733823305534,4.314136874571602,Monoclinic,P2_1/c,14.0,2/m,0.1,1.16.2,mp-755040,-5.395485972,-0.7877900772499998,,,
10.0,2.0,Cu2O3,97.66062516736574,5.954172764725702,Orthorhombic,Fdd2,43.0,mm2,0.1,1.16.2,mp-760432,-5.4365337799999995,-0.8288378852499996,24.486507973333342,23.19714521333334,
5.0,3.0,ZnCuO3,52.11003339679049,5.638793192137559,Cubic,Pm-3m,221.0,m-3m,0.1,1.16.2,mp-1100778,-4.581666933999999,-0.5418636512499994,,,
10.0,3.0,GaCuBr3,281.4849547225065,4.400587038196068,Tetragonal,I4/mcm,140.0,4/mmm,0.1,1.16.2,mp-1096988,-2.9004470099999997,-0.5431694734999997,,,
20.0,3.0,CuGeO3,212.5891751634234,5.754668539738315,Monoclinic,P2_1/c,14.0,2/m,0.1,1.16.2,mp-554874,-6.2437126755,-1.53125254375,,,['icsd-96085']