material_id,formula_pretty,icsd,crystal_system,symbol,number,point_group,nsites,nelements,volume,density,energy_per_atom,formation_energy_per_atom
mp-645159,FeBiO3,"['icsd-162895', 'icsd-168321']",Orthorhombic,Pnma,62.0,mmm,20.0,3.0,240.59962335446900,8.636020314780830,-7.103591225,-1.6734759302500000
mp-548231,FeBiO3,,Trigonal,R3,146.0,3,10.0,3.0,116.80742898715600,8.8942255344319,-7.053073916,-1.6229586212500000
mp-551451,FeBiO3,,Triclinic,P1,1.0,1,5.0,3.0,132.00542267882300,3.9351096205973200,-6.677269874000000,-1.247154579250000
mp-1274711,FeBO3,,Hexagonal,P6_3/mmc,194.0,mmm,20.0,3.0,236.18171736852400,3.2244287215966000,-8.1665428,-2.168646977083330
mp-19097,FeBO3,['icsd-34474'],Trigonal,R-3c,167.0,-3m,10.0,3.0,90.18607292723620,4.2221104006464100,-8.269021531,-2.2711257080833300
mp-849295,FeBO3,,Monoclinic,C2/c,15.0,2/m,20.0,3.0,235.11272342891700,3.239089326568590,-8.1663691055,-2.1684732825833300
mp-1199904,FeBO3,['icsd-192830'],Monoclinic,P2_1/c,14.0,2/m,40.0,3.0,402.110928972674,3.787766300929520,-8.17708015475,-2.1791843318333300
mp-18969,FeCO3,"['icsd-169793', 'icsd-182821', 'icsd-169790', 'icsd-169798', 'icsd-169797', 'icsd-169792', 'icsd-169795', 'icsd-169789', 'icsd-169794', 'icsd-169796', 'icsd-169791', 'icsd-100678']",Trigonal,R-3c,167.0,-3m,10.0,3.0,95.4533447182052,4.030868222290350,-8.298319626,-1.7905690587500000
mp-675126,FeCO3,,Monoclinic,Cc,9.0,m,10.0,3.0,114.26100286432900,3.367376832783400,-6.780641645,-0.2728910777500010
mp-22334,FeGeO3,"['icsd-190066', 'icsd-190068', 'icsd-190069', 'icsd-89791', 'icsd-89789', 'icsd-89788', 'icsd-190071', 'icsd-89787', 'icsd-190067', 'icsd-190070', 'icsd-89790']",Monoclinic,C2/c,15.0,2/m,20.0,3.0,225.7841303047730,5.1918130437777100,-7.5041170070000000,-1.9174939672500000
mp-1096837,FeGeS3,,Monoclinic,C2/c,15.0,2/m,20.0,3.0,353.95859274177700,4.2161984495838200,-5.642962374000000,-0.5424826408750000
mp-768499,FeNiO3,,Trigonal,R-3,148.0,-3,10.0,3.0,101.91843447621200,5.296360279461150,-7.0947282970000000,-1.2766834922500000
mp-1272388,FeNiO3,,Trigonal,R3,146.0,3,10.0,3.0,101.26706381606000,5.330427562165260,-7.099244788,-1.28119998325
mp-973579,FePbO3,,Cubic,Pm-3m,221.0,m-3m,5.0,3.0,61.514987243627200,8.396317842913720,-6.761996208000000,-1.357449325250000
mp-5864,FePS3,"['icsd-633080', 'icsd-61392', 'icsd-16252', 'icsd-633087', 'icsd-27307', 'icsd-657319']",Monoclinic,C2/m,12.0,2/m,20.0,3.0,413.33303440855700,2.940984399771400,-5.810363875,-0.5518292115416670
mp-1232490,FePS3,,Triclinic,P-1,2.0,-1,20.0,3.0,418.6342028677240,2.9037426893899400,-5.8158386865,-0.5573040230416670
mp-2928,FePSe3,"['icsd-86272', 'icsd-633091', 'icsd-56890', 'icsd-54141', 'icsd-633095', 'icsd-633094']",Trigonal,R-3,148.0,-3,10.0,3.0,208.9631556740790,5.144585784772710,-5.289859963,-0.41564833307291700
mp-1184349,FeRhO3,,Cubic,Pm-3m,221.0,m-3m,5.0,3.0,59.247936856377000,5.794535835922730,-6.499841534000000,-0.3649624912500010
mp-973648,FeRhO3,,Cubic,Pm-3m,221.0,m-3m,5.0,3.0,53.58574568537140,6.4068212344106000,-6.602590334,-0.46771129125
mp-21939,FeSiO3,"['icsd-34858', 'icsd-34863', 'icsd-34860', 'icsd-34859', 'icsd-17055', 'icsd-34861', 'icsd-34862']",Orthorhombic,Pbca,61.0,mmm,80.0,3.0,925.787299789366,3.786144146165660,-8.325332232125,-2.578251157375
mp-18269,FeSiO3,"['icsd-75929', 'icsd-75930', 'icsd-30675', 'icsd-159524']",Monoclinic,C2/c,15.0,2/m,20.0,3.0,233.00914797180500,3.7607581034931700,-8.322428204000000,-2.5753471292500000
mp-561362,FeSiO3,"['icsd-30675', 'icsd-75930']",Monoclinic,C2/c,15.0,2/m,20.0,3.0,230.27623832947700,3.805390637696690,-8.256560125,-2.5094790502500000
mp-650392,FeSiO3,['icsd-36049'],Triclinic,P-1,2.0,-1,90.0,3.0,1045.1464962152700,3.7729731675733500,-8.317575560777780,-2.5704944860277800
mp-1199561,FeSiO3,['icsd-75928'],Monoclinic,P2_1/c,14.0,2/m,40.0,3.0,457.98957997841600,3.826685495614560,-8.32495068225,-2.5778696075
mp-1178214,FeSnO3,,Orthorhombic,Pnma,62.0,mmm,20.0,3.0,233.75152028372500,6.323950878236460,-7.288322943500000,-1.8243911037500000
mp-1178212,FeSnO3,,Triclinic,P-1,2.0,-1,20.0,3.0,235.9626720863630,6.264690592443940,-7.323507478000000,-1.8595756382500000
mp-1207083,FeSnO3,,Cubic,Pm-3m,221.0,m-3m,5.0,3.0,65.24543243440460,5.664124969489380,-6.546368164,-1.0824363242500000
mp-540655,FeSO3,['icsd-14190'],Trigonal,R-3,148,-3,30,3,384.972563658703,3.51735521243061,-7.13834480266667,-1.64903736054167
mp-558285,GaBiO3,['icsd-171709'],Orthorhombic,Pcca,54.0,mmm,20.0,3.0,278.0863765695180,7.803341920061430,-6.3158994905,-1.97416923325
mp-755568,GaBiO3,,Trigonal,R3c,161.0,3m,10.0,3.0,125.04979164817900,8.67655615847845,-6.2667925880000000,-1.9250623307500000
mp-22979,GaBiO3,"['icsd-157550', 'icsd-158757']",Cubic,Pm-3m,221.0,m-3m,5.0,3.0,59.0686617673901,9.184240063827280,-6.090197468,-1.7484672107500000
mp-1078259,GaBO3,['icsd-429062'],Trigonal,R-3c,167.0,-3m,10.0,3.0,85.93315290339090,4.967413209102040,-7.440028688,-2.5305179025833300
mp-1184023,GaBO3,,Cubic,Pm-3m,221.0,m-3m,5.0,3.0,38.07755404786290,5.605211383792210,-6.037222814,-1.1277120285833300
mp-1096988,GaCuBr3,,Tetragonal,I4/mcm,140.0,4/mmm,10.0,3.0,281.4849547225070,4.400587038196070,-2.9004470100000000,-0.5431694735000000
mp-1184033,GaFeO3,,Cubic,Pm-3m,221.0,m-3m,5.0,3.0,55.3622322858092,5.205957994132140,-6.285739848,-1.01810317475
mp-861324,GaFeO3,,Triclinic,P1,1.0,1,40.0,3.0,435.6250846546970,5.292871616330620,-2.575484098,2.6921525752500000
mp-649086,GaFeO3,['icsd-35079'],Orthorhombic,Pna2_1,33.0,mm2,40.0,3.0,436.720592442893,5.279594518392150,-7.22065485375,-1.9530181805000000
mp-1184032,GaFeO3,,Cubic,Pm-3m,221.0,m-3m,5.0,3.0,54.210064246236200,5.316604208992790,-6.315184128,-1.0475474547500000
mp-868005,GaFeO3,,Triclinic,P1,1.0,1,40.0,3.0,436.14425734795800,5.286571144947950,-7.2197755185000000,-1.9521388452500000
mp-1183980,GaGeO3,,Cubic,Pm-3m,221.0,m-3m,5.0,3.0,52.90533441225180,5.97486459308068,-5.900624318,-1.4023863157500000
mp-1246681,GaMoN3,,Triclinic,P-1,2.0,-1,20.0,3.0,344.57439649979300,4.003383937120840,-7.955962789500000,-0.17931660799999900
mp-1183983,GaNiO3,,Cubic,Pm-3m,221.0,m-3m,5.0,3.0,49.484259465906600,5.919929658044960,-5.381211794,-0.6515520267500000
mp-1184206,GaSiO3,,Cubic,Pm-3m,221.0,m-3m,5.0,3.0,45.74953767768220,5.2922441146358800,-6.705735318,-2.0470392807500000
mp-1184243,GaSnO3,,Cubic,Pm-3m,221.0,m-3m,5.0,3.0,58.05563839429100,6.762534269224830,-5.8938217140000000,-1.5182749117500000
mp-5223,GdAlO3,"['icsd-150351', 'icsd-150350', 'icsd-150348', 'icsd-150355', 'icsd-150349', 'icsd-59848', 'icsd-150352', 'icsd-249020', 'icsd-150353', 'icsd-150354']",Orthorhombic,Pnma,62.0,mmm,20.0,3.0,207.09282195486600,7.448380870596260,-10.2235662665,-3.6912134257500000
mp-1178268,GdAlO3,,Cubic,Pm-3m,221.0,m-3m,5.0,3.0,52.11781860191400,7.399130733331270,-10.146833046000000,-3.6144802052500000
mp-753953,GdAsO3,,Monoclinic,P2_1/c,14.0,2/m,20.0,3.0,301.315102069506,6.176031602613680,-9.474184692,-2.759123336250000
mp-1184468,GdBeO3,,Cubic,Pm-3m,221.0,m-3m,5.0,3.0,46.63279248900440,7.629560996578340,-9.405294392,-2.8741741442500000
mp-29762,GdBO3,['icsd-87778'],Trigonal,R32,155.0,32,15.0,3.0,173.62184449890900,6.199244282892030,-10.399488720000000,-3.280372691083330
mp-1224628,GdBO3,,Orthorhombic,Ama2,40.0,mm2,10.0,3.0,122.76300328555700,5.844997803838380,-10.545738407,-3.4266223780833300
mp-561949,GdBO3,['icsd-87779'],Hexagonal,P6_3/mmc,194.0,6/mmm,10.0,3.0,157.43763671055600,4.557674388341320,-10.475372913,-3.356256884083330
mp-1194303,GdBO3,['icsd-184753'],Monoclinic,C2/c,15.0,2/m,30.0,3.0,339.92516006133100,6.332712922461120,-10.618909753333300,-3.499793724416670
mp-1184471,GdCdO3,,Cubic,Pm-3m,221.0,m-3m,5.0,3.0,70.87709295487410,7.442256580708540,-7.78714926,-1.8193336332500000
mp-20951,GdCoO3,,Cubic,Pm-3m,221.0,m-3m,5.0,3.0,54.93503924339070,7.98549583486763,-9.540154408,-2.335253174250000
mp-18331,GdCrO3,"['icsd-251088', 'icsd-9985', 'icsd-251087']",Orthorhombic,Pnma,62.0,mmm,20.0,3.0,224.59516837845600,7.60771859687336,-10.887914704500000,-3.174067535750000
mp-1147577,GdCrO3,,Cubic,Pm-3m,221.0,m-3m,5.0,3.0,58.03863768944230,7.359997181461670,-10.653252972,-2.9394058032500000
mp-1184481,GdCuO3,,Cubic,Pm-3m,221.0,m-3m,5.0,3.0,54.819729366320200,8.142018852244010,-8.85020497,-2.247125961250000
mp-1184486,GdErO3,,Cubic,Pm-3m,221.0,m-3m,5.0,3.0,76.28684769568460,8.10838010579864,-9.93883887,-3.2420574332500000
mp-766236,GdErO3,,Monoclinic,C2,5.0,2,40.0,3.0,599.9677434621270,8.247946859547480,-10.66889429325,-3.9721128565
mp-600576,GdFeO3,"['icsd-27278', 'icsd-150356', 'icsd-172009', 'icsd-61346', 'icsd-23823', 'icsd-150359', 'icsd-16644', 'icsd-189729', 'icsd-150363', 'icsd-150364', 'icsd-247096', 'icsd-150358', 'icsd-150362', 'icsd-150361', 'icsd-150360', 'icsd-150357']",Orthorhombic,Pnma,62.0,mmm,20.0,3.0,232.21112873567900,7.468297682099710,-10.2751785465,-2.7979366297500000
mp-18656,GdGaO3,['icsd-492'],Orthorhombic,Pnma,62.0,mmm,20.0,3.0,232.60547911276700,7.85192888029128,-9.467354193,-3.07849731375
mp-1212640,GdInO3,,Hexagonal,P6_3cm,185.0,6mm,30.0,3.0,433.53891373129400,7.355497910311510,-9.283875620666670,-2.950301199916670
mp-1212778,GdInO3,,Orthorhombic,Pnma,62.0,mmm,20.0,3.0,273.14026095991500,7.783289466450450,-9.2316398285,-2.8980654077500000
mp-756424,GdLuO3,,Orthorhombic,Pnma,62.0,mmm,20.0,3.0,278.05624247754900,9.08251061281044,-10.642339261,-3.9549114822500000
mp-510575,GdMnO3,"['icsd-169490', 'icsd-291465', 'icsd-95493', 'icsd-157393']",Orthorhombic,Pnma,62.0,mmm,20.0,3.0,228.9926389386750,7.546957429145370,-10.598357227,-2.9827164938362100
mp-505604,GdNiO3,['icsd-88040'],Orthorhombic,Pnma,62.0,mmm,20.0,3.0,214.9801926295190,8.154897113823290,-9.389624715,-2.450359704250000
mp-1184503,GdRhO3,,Cubic,Pm-3m,221.0,m-3m,5.0,3.0,62.27826638278760,8.216369643660480,-9.328475658,-2.0723764092500000
mp-5690,GdScO3,"['icsd-65513', 'icsd-99543']",Orthorhombic,Pnma,62.0,mmm,20.0,3.0,251.66745686793600,6.603534803754680,-10.9708225165,-3.921091020750000
mp-510490,GdScS3,['icsd-173844'],Orthorhombic,Pnma,62.0,mmm,20.0,3.0,431.9132118420600,4.588943873902730,-8.861792824,-2.2982046348750000
mp-1184484,GdSiO3,,Cubic,Pm-3m,221.0,m-3m,5.0,3.0,51.90876675147050,7.464244455265320,-9.751558952,-2.88325767125
mp-1184491,GdThO3,,Cubic,Pm-3m,221.0,m-3m,5.0,3.0,96.63496616304800,7.514163318402120,-10.404723892,-3.1387145672500000
mp-510278,GdTiO3,['icsd-8149'],Orthorhombic,Pnma,62.0,mmm,20.0,3.0,239.23081017440800,7.02765129029747,-10.980702133,-3.618366054916670
mp-756030,GdTmO3,,Orthorhombic,Pnma,62.0,mmm,20.0,3.0,282.19548324982100,8.807292061290390,-10.605396298000000,-3.9269915385833300
mp-541177,GdVO3,['icsd-40391'],Orthorhombic,Pnma,62.0,mmm,20.0,3.0,229.68430934192200,7.408655933518540,-10.853466169,-3.2534472802500000
mp-1184599,GdZrO3,,Cubic,Pm-3m,221.0,m-3m,5.0,3.0,72.1126937347448,6.826865628840740,-10.773722312,-3.28094451125
mp-1184562,GeBiO3,,Cubic,Pm-3m,221.0,m-3m,5.0,3.0,61.53209907785570,8.895268820351010,-6.117669014,-1.4569523902500000
mp-973738,GeBO3,,Cubic,Pm-3m,221.0,m-3m,5.0,3.0,39.55913595647480,5.5177274881199900,-6.239931454,-1.0114343020833300
mp-28369,GeH3Cl,['icsd-62109'],Orthorhombic,Cmc2_1,36,mm2,10,3,169.938881175194,2.17153154463975,-3.735963525,-0.406014995
mp-553898,GePbO3,['icsd-200595'],Monoclinic,P2/c,13.0,2/m,60.0,3.0,963.397868023716,6.780851276832050,-6.552029497333330,-1.9168812855833300
mp-554699,GePbO3,['icsd-172521'],Trigonal,R-3,148.0,-3,30.0,3.0,513.9167066238760,6.355755299727000,-6.565139741,-1.9299915292500000
mp-1017566,GePbO3,"['icsd-185696', 'icsd-185701', 'icsd-185694', 'icsd-185695', 'icsd-185697', 'icsd-185693', 'icsd-185698', 'icsd-185700', 'icsd-185699']",Cubic,Pm-3m,221.0,m-3m,5.0,3.0,58.79294308872990,9.259412950330410,-6.347383798,-1.71223558625
mp-624190,GePbS3,"['icsd-637520', 'icsd-2090']",Monoclinic,P2_1/c,14.0,2/m,20.0,3.0,517.5790037198700,4.825704315060560,-4.8821441055,-0.7331392003750000
mp-1184557,GePdO3,,Cubic,Pm-3m,221.0,m-3m,5.0,3.0,53.483516561437300,7.049630161449200,-5.8652823220000000,-0.9366871622500000
mp-541785,GePdS3,['icsd-408505'],Monoclinic,C2/m,12.0,2/m,10.0,3.0,228.1245165560430,4.007212268784750,-5.094248789,-0.6517969358750000
mp-1078197,H3CBr,"['icsd-193936', 'icsd-193935', 'icsd-193934']",Orthorhombic,Cmc2_1,36,mm2,10,3,157.448480339628,2.00254865648909,-4.488575583,-0.2966011915
mp-1078233,H3CCl,"['icsd-193939', 'icsd-193940', 'icsd-193942', 'icsd-193941']",Orthorhombic,Cmc2_1,36,mm2,10,3,127.363164469396,1.31649523133345,-4.625037816,-0.3739617585
mp-1096983,H3CI,,Trigonal,R3m,160,3m,5,3,3708.6735024971,0.0635524366893042,-4.336038568,-0.1599965725
mp-1181198,H3CI,['icsd-241117'],Orthorhombic,Pnma,62,mmm,20,3,354.261999863785,2.66125340069635,-4.359877885,-0.183835889500001
mp-554676,H3CS,['icsd-249027'],Monoclinic,P2_1/c,14,2/m,40,3,522.698916026639,1.19702705446777,-4.939623659,-0.230964960125
mp-559204,H3CS,['icsd-249028'],Monoclinic,P2_1/c,14,2/m,40,3,549.45318456906,1.13874077245652,-4.940820294,-0.232161595125
mp-1200055,H3CSe,['icsd-249029'],Orthorhombic,Fdd2,43,mm2,40,3,665.126626361347,1.87731558257023,-4.76533173175,-0.184780710718751
mp-1184563,HfBeO3,,Cubic,Pm-3m,221.0,m-3m,5.0,3.0,40.64850377274620,9.620466885977180,-8.59511636,-2.88778275425
mp-1184625,HfBO3,,Cubic,Pm-3m,221.0,m-3m,5.0,3.0,40.1803820086125,9.806890138288500,-8.317634202,-2.0223048150833300
mp-1017446,HfCdO3,,Cubic,Pm-3m,221.0,m-3m,5.0,3.0,68.82568084657430,8.176531700339830,-7.822235606,-2.6782066212500000
mp-1212404,HfCdO3,,Orthorhombic,Pnma,62.0,mmm,20.0,3.0,247.38275372750400,9.099346704813070,-8.087934109000000,-2.94390512425
mp-753534,HfCoO3,,Orthorhombic,Pnma,62.0,mmm,20.0,3.0,229.81662368908200,8.249244449473400,-9.212655324,-2.8315407322500000
mp-756322,HfCrO3,,Orthorhombic,Pnma,62.0,mmm,20.0,3.0,244.80676715117300,7.5559032124172100,-9.9942832415,-3.10422271475
mp-753790,HfFeO3,,Orthorhombic,Pnma,62.0,mmm,20.0,3.0,235.705452334387,7.956121570460500,-9.562520446500000,-2.9090651717500000
mp-753856,HfFeO3,,Orthorhombic,Pnma,62.0,mmm,20.0,3.0,235.5895267984850,7.960036505344460,-9.596060445,-2.9426051702500000
mp-1016825,HfMgO3,,Cubic,Pm-3m,221.0,m-3m,5.0,3.0,67.541266847953,6.165888288342770,-8.324014238,-3.0445071952500000
mp-754657,HfMnO3,,Orthorhombic,Pnma,62.0,mmm,20.0,3.0,239.8651885281710,7.793032028641510,-9.964329765000000,-3.172475673836210
mp-1178219,HfNiO3,,Monoclinic,P2_1/c,14.0,2/m,20.0,3.0,216.25322779642700,8.759271576214950,-8.918519201,-2.8030408322500000
mp-1184669,HfNpO3,,Cubic,Pm-3m,221.0,m-3m,5.0,3.0,69.98673726680190,10.996944464979200,-10.68232455,-3.133317581
mp-755790,HfPbO3,,Orthorhombic,Pnma,62.0,mmm,20.0,3.0,275.25833487806900,10.465168281170300,-8.687786885,-2.9858064382500000
mp-22734,HfPbO3,"['icsd-89326', 'icsd-174113', 'icsd-161703', 'icsd-174108', 'icsd-174106', 'icsd-174107', 'icsd-52030', 'icsd-161704', 'icsd-174109', 'icsd-151432', 'icsd-174112', 'icsd-52029', 'icsd-161707', 'icsd-174114', 'icsd-161705', 'icsd-174110', 'icsd-174111', 'icsd-161706']",Orthorhombic,Pbam,55.0,mmm,40.0,3.0,557.2442267053380,10.338823292347800,-8.69323866225,-2.9912582155000000
mp-669414,HfPbO3,['icsd-33194'],Orthorhombic,Pba2,32.0,mm2,40.0,3.0,581.4064880592100,9.909159441648260,-8.689749293750000,-2.9877688470000000
mp-1181854,HfPbO3,,Orthorhombic,Pbam,55.0,mmm,40.0,3.0,615.0807367548510,9.366655865348130,-8.424724201,-2.7227437542500000
mp-22535,HfPbO3,['icsd-161702'],Cubic,Pm-3m,221.0,m-3m,5.0,3.0,71.75693874710120,10.036049633632500,-8.66198264,-2.9600021932500000
mp-22147,HfPbS3,['icsd-65668'],Orthorhombic,Pnma,62.0,mmm,20.0,3.0,482.24304886321200,6.637224694019500,-6.6720010605000000,-1.4561639203750000
mp-776083,HfSnO3,,Trigonal,R-3,148.0,-3,10.0,3.0,173.89666541206300,6.592594463634100,-8.757209739,-2.9958443352500000
mp-8725,HfSnS3,['icsd-65667'],Orthorhombic,Pnma,62.0,mmm,20.0,3.0,492.4676860327050,5.305913745266320,-6.707675757500000,-1.4324536603750000
mp-1184597,HfThO3,,Cubic,Pm-3m,221.0,m-3m,5.0,3.0,69.95265822570210,10.884515143589400,-9.60118995,-3.15896726725
mp-1016819,HfZnO3,,Cubic,Pm-3m,221.0,m-3m,5.0,3.0,67.7504521495989,7.154294748629560,-7.653380586,-2.4419808312500000
mp-4891,HoAlO3,"['icsd-39606', 'icsd-1236']",Orthorhombic,Pnma,62.0,mmm,20.0,3.0,200.9767494622270,7.928877859584820,-8.389978277500000,-3.7563681107500000
mp-1184610,HoBeO3,,Cubic,Pm-3m,221.0,m-3m,5.0,3.0,45.22311094458820,8.149399686173760,-7.525089224,-2.89271165025
mp-754300,HoBiO3,,Trigonal,R-3,148.0,-3,10.0,3.0,157.1470142482770,8.916443593387510,-7.451282480000000,-2.7986896532500000
mp-1178162,HoBiO3,,Trigonal,R3c,161.0,3m,10.0,3.0,157.65844353190300,8.887519482142380,-7.469307687,-2.81671486025
mp-770830,HoBiO3,,Orthorhombic,Pnma,62.0,mmm,20.0,3.0,303.2576792205500,9.240936565995320,-7.4651025475,-2.8125097207500000
mp-753056,HoBO3,,Orthorhombic,Ama2,40.0,mm2,10.0,3.0,118.51798572341900,6.269566790805140,-8.692011009,-3.4716376540833300
mp-780393,HoBO3,,Triclinic,P-1,2.0,-1,60.0,3.0,620.0271110640850,7.190554227179880,-8.722134835333330,-3.501761480416670
mp-754409,HoBO3,,Trigonal,R-3c,167.0,-3m,10.0,3.0,119.95586286451700,6.19441525958512,-8.75474245,-3.5343690950833300
mp-752713,HoBO3,,Orthorhombic,Cmcm,63.0,mmm,30.0,3.0,321.8398383288320,6.926331102417450,-8.781244773,-3.5608714180833300
mp-850193,HoBO3,,Triclinic,P-1,2.0,-1,20.0,3.0,223.983121981949,6.634932318378410,-8.748231234000000,-3.5278578790833300
mp-1184546,HoBO3,,Cubic,Pm-3m,221.0,m-3m,5.0,3.0,41.8843783630594,8.870328944168060,-7.910179908000000,-2.6898065530833300
mp-1188609,HoCoO3,,Orthorhombic,Pnma,62.0,mmm,20.0,3.0,268.29687484690700,6.730410091104780,-7.5257848255,-2.21962626575
mp-20570,HoCoO3,"['icsd-172048', 'icsd-23659']",Orthorhombic,Pnma,62.0,mmm,20.0,3.0,203.43872145083400,8.876127322290040,-7.946192691,-2.64003413125
mp-756834,HoCrO3,"['icsd-239908', 'icsd-236371', 'icsd-251089']",Orthorhombic,Pnma,62.0,mmm,20.0,3.0,216.86995599622600,8.113944214971220,-9.045650313500000,-3.230545818750000
mp-1184736,HoCuO3,,Cubic,Pm-3m,221.0,m-3m,5.0,3.0,53.37861048446100,8.600762313082880,-6.922426854000000,-2.21809051925
mp-1184778,HoErO3,,Cubic,Pm-3m,221.0,m-3m,5.0,3.0,76.57044471496810,8.244907443646570,-7.93530163,-3.137262867250000
mp-770415,HoErO3,,Hexagonal,P6_3cm,185.0,6mm,30.0,3.0,446.6035317168510,8.481566106297970,-8.751239186666670,-3.953200423916670
mp-19785,HoFeO3,"['icsd-239903', 'icsd-27281', 'icsd-189732']",Orthorhombic,Pnma,62.0,mmm,20.0,3.0,223.93725501008700,7.9720353812052000,-8.4373758575,-2.8588766147500000
mp-755416,HoGaO3,['icsd-420711'],Orthorhombic,Pnma,62.0,mmm,20.0,3.0,225.6080378581870,8.321581015458300,-7.631604461500000,-3.1414902562500000
mp-769045,HoGaO3,,Hexagonal,P6_3cm,185.0,6mm,30.0,3.0,364.40174897721600,7.728073081612190,-7.6622993993333300,-3.1721851940833300
mp-982558,HoGeO3,,Cubic,Pm-3m,221.0,m-3m,5.0,3.0,59.543920169682800,7.963830434741590,-7.165676248,-2.3565756762500000
mp-768267,HoInO3,,Hexagonal,P6_3cm,185.0,6mm,30.0,3.0,415.99330878356700,7.849682515235160,-7.441156516666670,-3.006324769916670
mp-776984,HoInO3,,Orthorhombic,Pnma,62.0,mmm,20.0,3.0,265.1425363558650,8.210465327551110,-7.3792483065,-2.9444165597500000
mp-770472,HoLuO3,,Orthorhombic,Pnma,62.0,mmm,20.0,3.0,269.37247310946200,9.564684279486550,-8.7859126255,-3.9972275207500000
mp-1232153,HoMgS3,,Trigonal,R-3,148.0,-3,30.0,3.0,689.2990172597550,4.125653905932060,-5.357413702333330,-1.639005998208330
mp-1232139,HoMgS3,,Monoclinic,C2/m,12.0,2/m,10.0,3.0,252.61578467861900,3.7524828288551100,-5.23454461,-1.5161369058750000
mp-1232140,HoMgSe3,,Monoclinic,C2/m,12.0,2/m,10.0,3.0,287.6378925393130,4.919943818876730,-4.727275368,-1.39319069740625
mp-1232172,HoMgSe3,,Trigonal,R-3,148.0,-3,30.0,3.0,792.6828548576240,5.35584539062991,-4.843241417333330,-1.5091567467395800
mp-1181443,HoMnO3,['icsd-180805'],Orthorhombic,Pnma,62.0,mmm,20.0,3.0,263.68763077104800,6.747421477720460,-8.4773038505,-2.760405791336210