nsites,nelements,formula_pretty,volume,density,crystal_system,symbol,number,point_group,symprec,version,material_id,energy_per_atom,formation_energy_per_atom,e_total,e_electronic,icsd
20.0,3.0,LuCrO3,210.0228117255138,8.695893111836789,Orthorhombic,Pnma,62.0,mmm,0.1,1.16.2,mp-755471,-9.0573971395,-3.25458431475,,,"['icsd-251093', 'icsd-251094']"
20.0,3.0,HfCrO3,244.80676715117258,7.5559032124172125,Orthorhombic,Pnma,62.0,mmm,0.1,1.16.2,mp-756322,-9.9942832415,-3.10422271475,,,
5.0,3.0,CrWO3,113.26051194329801,4.161361585819264,Trigonal,R3,146.0,3,0.1,1.16.2,mp-1226283,-8.879733188,-1.3894844212500004,,,
20.0,3.0,TlCrO3,233.87374183496345,8.644508645260622,Orthorhombic,Pnma,62.0,mmm,0.1,1.16.2,mp-1105306,-7.067328762,-1.6961774119166662,,,['icsd-238834']
5.0,3.0,CrPbO3,60.100719885198174,8.487554511181017,Cubic,Pm-3m,221.0,m-3m,0.1,1.16.2,mp-22364,-7.3799187,-1.7387665652500004,,,"['icsd-194155', 'icsd-160196']"
20.0,3.0,CrBiO3,231.942668887704,8.84812721008082,Orthorhombic,Pnma,62.0,mmm,0.1,1.16.2,mp-559851,-7.670347761,-2.003627214250001,,,"['icsd-174403', 'icsd-160454']"
10.0,3.0,CrBiO3,455.0453581219345,2.2550040376569824,Monoclinic,Cc,9.0,m,0.1,1.16.2,mp-1181841,-5.734605755,-0.06788520825000006,,,
10.0,3.0,CrBiO3,118.64886501255923,8.64845289310953,Trigonal,R3c,161.0,3m,0.1,1.16.2,mp-546027,-7.6668454100000005,-2.000124863250001,33.08613495937004,7.234361556696754,['icsd-246425']
20.0,3.0,CrBiO3,248.44169502757873,8.2605226129062,Monoclinic,C2/c,15.0,2/m,0.1,1.16.2,mp-23456,-7.6588676630000005,-1.9921471162500013,,,"['icsd-160458', 'icsd-160455', 'icsd-174406', 'icsd-160457', 'icsd-174405', 'icsd-174404', 'icsd-160456']"
5.0,3.0,AcCrO3,61.36284504026082,8.848788046728616,Cubic,Pm-3m,221.0,m-3m,0.1,1.16.2,mp-866101,-8.862593228,-3.13973550575,,,
20.0,3.0,ThCrS3,417.17411707912595,6.053926632468872,Orthorhombic,Pnma,62.0,mmm,0.1,1.16.2,mp-1189441,-7.598655058,-1.7034039938749999,,,['icsd-626639']
20.0,3.0,ThCrSe3,473.9553993769641,7.3002507338218114,Orthorhombic,Pnma,62.0,mmm,0.1,1.16.2,mp-1188731,-6.9812120895,-1.470284058906249,,,['icsd-626732']
20.0,3.0,UCrS3,394.1513610207951,6.508498798498949,Orthorhombic,Pnma,62.0,mmm,0.1,1.16.2,mp-22063,-8.052770542500001,-1.382009126375,,,"['icsd-66866', 'icsd-626654']"
20.0,3.0,UCrSe3,454.95283457964933,7.692633495080115,Orthorhombic,Pnma,62.0,mmm,0.1,1.16.2,mp-1106185,-7.430784921,-1.14434653840625,,,"['icsd-601732', 'icsd-626741']"
20.0,3.0,PuCrO3,240.1915793472138,9.51267276546756,Orthorhombic,Pnma,62.0,mmm,0.1,1.16.2,mp-1209736,-10.649661856,-2.89747146925,,,
20.0,2.0,Mn2O3,239.28969097741458,4.382243548995705,Orthorhombic,Cmcm,63.0,mmm,0.1,1.16.2,mp-1043363,-8.4201560815,-1.7873367379224134,,,
80.0,2.0,Mn2O3,841.82162155356,4.98265037522671,Triclinic,P-1,2.0,-1,0.1,1.16.2,mp-1204718,-8.57061584375,-1.9377965001724136,,,['icsd-236255']
80.0,2.0,Mn2O3,889.1007007723838,4.717691499808666,Orthorhombic,Pbca,61.0,mmm,0.1,1.16.2,mp-1172875,-8.647502563375,-2.0146832197974134,,,"['icsd-290639', 'icsd-290640', 'icsd-290641', 'icsd-290638']"
10.0,2.0,Mn2O3,107.67545202396182,4.869381483504672,Trigonal,R-3c,167.0,-3m,0.1,1.16.2,mp-770543,-8.583230503,-1.9504111594224143,,,
80.0,2.0,Mn2O3,841.8216039992799,4.982650479128582,Triclinic,P-1,2.0,-1,0.1,1.16.2,mp-1349371,-5.777123355125001,0.8556959884525852,,,
40.0,2.0,Mn2O3,450.15793537217303,4.658923556506842,Orthorhombic,Pna2_1,33.0,mm2,0.1,1.16.2,mp-771717,-8.559299829,-1.9264804854224138,,,
40.0,2.0,Mn2O3,776.6892150959226,2.7002453085368088,Cubic,I2_13,199.0,23,0.1,1.16.2,mp-1182678,-8.225788237,-1.592968893422413,,,
10.0,2.0,Mn2O3,108.36055396291653,4.838595163447644,Monoclinic,C2/c,15.0,2/m,0.1,1.16.2,mp-1303934,-8.588898494999999,-1.9560791514224136,,,
80.0,2.0,Mn2O3,838.3258061648188,5.003428008135471,Trigonal,R-3,148.0,-3,0.1,1.16.2,mp-1203190,-8.571096484125,-1.9382771405474144,,,['icsd-236254']
40.0,2.0,Mn2O3,418.0589224979055,5.016640708737436,Cubic,Ia-3,206.0,m-3,0.1,1.16.2,mp-510604,-8.64071921875,-2.007899875172414,,,"['icsd-76087', 'icsd-43464', 'icsd-24342', 'icsd-180890', 'icsd-159865', 'icsd-187263', 'icsd-9090', 'icsd-9091', 'icsd-52348', 'icsd-180891', 'icsd-643194', 'icsd-61271', 'icsd-290637']"
80.0,2.0,Mn2O3,888.4438433922353,4.7211794529325015,Orthorhombic,Pbca,61.0,mmm,0.1,1.16.2,mp-565203,-8.647341928874999,-2.0145225852974136,,,
10.0,2.0,Mn2O3,108.72110246815849,4.82254907658826,Monoclinic,C2/c,15.0,2/m,0.1,1.16.2,mp-1306224,-8.597185073999999,-1.9643657304224136,,,
160.0,2.0,Mn2O3,1888.1982463422953,4.442862741381253,Tetragonal,P4_12_12,92.0,422,0.1,1.16.2,mp-778470,-8.56865114175,-1.9358317981724142,,,
10.0,2.0,Mn2S3,180.36974944148466,3.794306933412436,Trigonal,R-3c,167.0,-3m,0.1,1.16.2,mp-974355,-6.990842874,-0.8441668370474147,,,
40.0,3.0,MnFeO3,435.4285158171741,4.844192803883177,Orthorhombic,Ibca,73.0,mmm,0.1,1.16.2,mp-674482,-8.34412861425,-1.8497080870862077,,,
40.0,3.0,MnFeO3,438.4171179541389,4.811170906761292,Triclinic,P1,1.0,1,0.1,1.16.2,mp-759744,-8.28910690325,-1.7946863760862073,,,
10.0,3.0,MnCoO3,96.19991342161018,5.588165711348426,Trigonal,R-3,148.0,-3,0.1,1.16.2,mp-20641,-7.877781891,-1.655702046836207,,,['icsd-31854']
10.0,3.0,MnCoO3,105.46988977428495,5.097009760489947,Monoclinic,C2/m,12.0,2/m,0.1,1.16.2,mp-1181286,-7.787840512,-1.5657606678362073,,,
10.0,3.0,MnNiO3,94.51432955997518,5.67939996173549,Trigonal,R-3,148.0,-3,0.1,1.16.2,mp-19331,-7.576479338,-1.6200357168362074,14.250352466666667,8.133467403333334,['icsd-31853']
10.0,3.0,MnNiO3,113.16751063504736,4.743275492004498,Monoclinic,C2/m,12.0,2/m,0.1,1.16.2,mp-1180705,-7.3230166400000005,-1.3665730188362075,,,
10.0,3.0,MnCuO3,100.47714229378938,5.502749489221097,Trigonal,R-3,148.0,-3,0.1,1.16.2,mp-1176440,-7.047822522,-1.4275649028362067,,,
10.0,3.0,MnZnO3,97.48952847675997,5.734848867701465,Trigonal,R-3,148.0,-3,0.1,1.16.2,mp-754318,-6.866778206000001,-1.8144131988362076,,,
20.0,3.0,MnZnO3,195.097888591396,5.731355844333344,Orthorhombic,Pnma,62.0,mmm,0.1,1.16.2,mp-772528,-6.774189988000001,-1.7218249808362074,,,
5.0,3.0,MnZnO3,52.26198479368501,5.348894748303294,Cubic,Pm-3m,221.0,m-3m,0.1,1.16.2,mp-1016932,-6.31139953,-1.2590345228362068,,,
10.0,3.0,MnGaO3,109.68179486463097,5.2279855902433825,Hexagonal,P6_3/mmc,194.0,6/mmm,0.1,1.16.2,mp-1176435,-7.467511213,-2.061475723336207,,,
20.0,3.0,MnGeO3,236.28735002760632,4.935536565209604,Monoclinic,C2/c,15.0,2/m,0.1,1.16.2,mp-1106201,-7.849491123,-2.124469266836207,,,['icsd-290044']
80.0,3.0,MnGeO3,970.5978536731133,4.80612996018636,Orthorhombic,Pbca,61.0,mmm,0.1,1.16.2,mp-643577,-7.84675636875,-2.1217345125862073,,,"['icsd-4417', 'icsd-290045', 'icsd-162671', 'icsd-24884']"
10.0,3.0,MnGeO3,104.25051788767347,5.593280875660874,Trigonal,R-3,148.0,-3,0.1,1.16.2,mp-20798,-7.832737924,-2.107716067836207,,,"['icsd-69591', 'icsd-73246', 'icsd-73244', 'icsd-174042', 'icsd-73247', 'icsd-73245', 'icsd-73243']"
5.0,3.0,RbMnO3,65.90328141912995,4.747142635255059,Cubic,Pm-3m,221.0,m-3m,0.1,1.16.2,mp-975346,-6.375374634,-1.378851534336207,,,
5.0,3.0,RbMnF3,75.81974583115912,4.323308649455128,Cubic,Pm-3m,221.0,m-3m,0.1,1.16.2,mp-558749,-6.190304176,-3.0149069225862064,9.062099983333342,2.331379980000002,['icsd-43722']
30.0,3.0,RbMnCl3,789.3611759695846,3.1146401256637115,Hexagonal,P6_3/mmc,194.0,6/mmm,0.1,1.16.2,mp-569309,-4.961344522,-1.8237126530862071,,,"['icsd-36125', 'icsd-817', 'icsd-54006']"
10.0,3.0,RbMnBr3,316.29598840839145,3.9912016254807323,Hexagonal,P6_3/mmc,194.0,6/mmm,0.1,1.16.2,mp-29763,-4.542519885,-1.5821930140862073,20.512253886129177,3.3423627966666665,"['icsd-9704', 'icsd-14077']"
30.0,3.0,RbMnBr3,955.5399878525553,3.963416745872707,Hexagonal,P6_3cm,185.0,6mm,0.1,1.16.2,mp-568231,-4.543790978666666,-1.5834641077528735,,,
30.0,3.0,SrMnO3,340.51092050106075,5.575611297425895,Hexagonal,P6_3/mmc,194.0,6/mmm,0.1,1.16.2,mp-1193101,-7.623904114666667,-2.4855891388362066,,,['icsd-185417']
20.0,3.0,SrMnO3,246.82028281498637,5.1280402987673455,Orthorhombic,C222_1,20.0,222,0.1,1.16.2,mp-559975,-7.6389496565,-2.5006346806695405,,,['icsd-157936']
20.0,3.0,SrMnO3,231.64938296111515,5.463879681651756,Cubic,Pm-3m,221.0,mmm,0.1,1.16.2,mp-1017466,-7.5897023070000005,-2.4513873311695407,,,"['icsd-188415', 'icsd-236949']"
20.0,3.0,SrMnO3,234.10501793574898,5.406566540046488,Hexagonal,P6_3/mmc,194.0,6/mmm,0.1,1.16.2,mp-19001,-7.6358860055,-2.4975710296695395,,,"['icsd-188416', 'icsd-157935', 'icsd-202615']"
20.0,3.0,SrMnO3,245.70082607116166,5.151404564109284,Hexagonal,P6_3mc,186.0,6mm,0.1,1.16.2,mp-1218206,-7.6263307529999995,-2.4880157771695393,,,
20.0,3.0,YMnO3,235.56508314016247,5.409312604726616,Orthorhombic,Pnma,62.0,mmm,0.1,1.16.2,mp-20699,-9.1073859565,-3.0136754486695394,,,"['icsd-188567', 'icsd-190398', 'icsd-166217', 'icsd-162207', 'icsd-56617', 'icsd-236365']"
5.0,3.0,YMnO3,58.06198077710698,5.486572953630488,Cubic,Pm-3m,221.0,m-3m,0.1,1.16.2,mp-1434307,-8.80542923,-2.7117187221695405,,,
10.0,3.0,YMnO3,125.05119599578148,5.094893988485083,Hexagonal,P6_3/mmc,194.0,6/mmm,0.1,1.16.2,mp-19227,-9.109891136,-3.0161806281695407,,,"['icsd-422990', 'icsd-181182', 'icsd-422982', 'icsd-73361', 'icsd-422989', 'icsd-182284']"
30.0,3.0,YMnO3,373.2740106140465,5.120548727866363,Hexagonal,P6_3cm,185.0,6mm,0.1,1.16.2,mp-19385,-9.130481213333333,-3.0367707055028736,,,"['icsd-290276', 'icsd-182286', 'icsd-164405', 'icsd-195446', 'icsd-280590', 'icsd-162200', 'icsd-422984', 'icsd-191978', 'icsd-182285', 'icsd-250880', 'icsd-195447', 'icsd-422983', 'icsd-181183', 'icsd-422985', 'icsd-163216', 'icsd-247621', 'icsd-163217', 'icsd-280589', 'icsd-422988', 'icsd-98061', 'icsd-422986', 'icsd-98060', 'icsd-422987', 'icsd-247620', 'icsd-154127', 'icsd-164406']"
10.0,3.0,ZrMnO3,126.52058400805868,5.09657261750533,Trigonal,R3c,161.0,3m,0.1,1.16.2,mp-754513,-9.569091926,-3.059135514836207,26.003729457103358,4.936096549999999,
10.0,3.0,ZrMnO3,127.74990701423613,5.047528871660136,Trigonal,R-3,148.0,-3,0.1,1.16.2,mp-754980,-9.56466298,-3.054706568836207,,,
10.0,3.0,MnAgO3,117.63805032973549,5.95128898097606,Trigonal,R-3,148.0,-3,0.1,1.16.2,mp-754229,-6.55820158,-1.191274094169541,,,
5.0,3.0,MnAgF3,85.76087012016227,4.255890847975408,Cubic,Pm-3m,221.0,m-3m,0.1,1.16.2,mp-1206344,-4.889051757999999,-1.3432501184195396,,,
5.0,3.0,MnCdO3,55.42670862107124,6.451628142884849,Cubic,Pm-3m,221.0,m-3m,0.1,1.16.2,mp-1016854,-6.404873012,-1.4198787748362072,,,
30.0,3.0,MnInO3,349.5611823090674,6.206457393557825,Hexagonal,P6_3cm,185.0,6mm,0.1,1.16.2,mp-882825,-7.3424513503333335,-1.9916983191695408,,,"['icsd-185383', 'icsd-79484', 'icsd-188225', 'icsd-186856']"
30.0,3.0,MnInO3,364.4210670563086,5.953378606697565,Trigonal,P-3c1,165.0,-3m,0.1,1.16.2,mp-1193780,-7.340368717666666,-1.9896156865028738,,,['icsd-186855']
10.0,3.0,MnInO3,122.76767283438741,5.890629387888925,Hexagonal,P6_3/mmc,194.0,6/mmm,0.1,1.16.2,mp-550807,-7.334922193,-1.984169161836207,,,['icsd-67671']
5.0,3.0,MnInF3,79.85800960507555,4.7149849905591905,Cubic,Pm-3m,221.0,m-3m,0.1,1.16.2,mp-1422819,-6.035298127999999,-2.5056709430862063,,,
5.0,3.0,MnInF3,79.9998764939565,4.706623724504216,Trigonal,R3m,160.0,3m,0.1,1.16.2,mp-1099572,-6.035342326,-2.505715141086207,,,
5.0,3.0,MnInF3,80.12432855464112,4.699313223037958,Triclinic,P1,1.0,1,0.1,1.16.2,mp-998241,-6.035291062000001,-2.5056638770862074,,,
20.0,3.0,MnInBr3,582.9885617523072,4.665187139885671,Orthorhombic,Pnma,62.0,mmm,0.1,1.16.2,mp-28912,-4.437653639,-1.1230968365862068,31.56369769666666,5.24885592,['icsd-75470']
10.0,3.0,MnSnO3,177.68584537215784,4.1427300865391965,Triclinic,P-1,2.0,-1,0.1,1.16.2,mp-1181816,-7.532897433,-1.9305667768362063,,,
10.0,3.0,MnSnO3,120.55503457779893,6.105962311348783,Trigonal,R-3,148.0,-3,0.1,1.16.2,mp-20569,-7.686987345,-2.084656688836207,13.040979183302902,4.60885531,['icsd-29203']
10.0,3.0,MnSnO3,123.04270445239978,5.982512338715366,Trigonal,R3c,161.0,3m,0.1,1.16.2,mp-691106,-7.664667747999999,-2.0623370918362065,14.632686733329734,5.004249476666666,
30.0,3.0,CsMnF3,505.0130043739792,4.830341796798406,Hexagonal,P6_3/mmc,194.0,6/mmm,0.1,1.16.2,mp-558702,-6.150157400333334,-2.991786487005748,,,"['icsd-410386', 'icsd-31765']"
15.0,3.0,CsMnCl3,422.31554616605507,3.470400822528253,Trigonal,R-3m,166.0,-3m,0.1,1.16.2,mp-23336,-4.978613888666667,-1.8580083598390804,11.435249393333336,3.143943333333335,"['icsd-2555', 'icsd-21105']"
10.0,3.0,CsMnBr3,331.4915425324251,4.283503586958503,Hexagonal,P6_3/mmc,194.0,6/mmm,0.1,1.16.2,mp-23048,-4.563924619,-1.620624088172414,12.470928903324259,3.328562953333332,"['icsd-2782', 'icsd-9703']"
10.0,3.0,CsMnI3,415.0625997810132,4.549246094400322,Hexagonal,P6_3/mmc,194.0,6/mmm,0.1,1.16.2,mp-540609,-4.061614498,-1.166111155172414,14.01753605332707,4.037406886666667,"['icsd-15952', 'icsd-10042', 'icsd-15951', 'icsd-15949', 'icsd-15950']"
5.0,3.0,BaMnO3,65.61237804092859,6.080659114987635,Cubic,Pm-3m,221.0,m-3m,0.1,1.16.2,mp-1016852,-7.54118007,-2.3569687968362074,,,
10.0,3.0,BaMnO3,138.62812636506428,5.755924357513797,Hexagonal,P6_3/mmc,194.0,6/mmm,0.1,1.16.2,mp-19156,-7.6671448255,-2.4829335523362075,15.486149323360648,5.129945166666665,"['icsd-24129', 'icsd-23873', 'icsd-10331', 'icsd-10332', 'icsd-89994']"
30.0,3.0,BaMnO3,418.53444768251074,5.719479103329138,Hexagonal,P6_3cm,185.0,6mm,0.1,1.16.2,mp-19267,-7.659943475,-2.475732201836207,20.12979821666742,5.073101226666149,
15.0,3.0,BaMnO3,196.58101951817102,6.088581271505338,Trigonal,R-3m,166.0,-3m,0.1,1.16.2,mp-18840,-7.652395308666667,-2.4681840355028735,,,['icsd-66822']
40.0,3.0,BaMnO3,531.0888445860152,6.009789264567697,Hexagonal,P6_3/mmc,194.0,6/mmm,0.1,1.16.2,mp-557535,-7.65261695575,-2.4684056825862073,,,['icsd-10250']
25.0,3.0,BaMnO3,334.78723854374823,5.958508250284639,Trigonal,R-3m,166.0,-3m,0.1,1.16.2,mp-675227,-7.65262523,-2.468413956836207,,,
20.0,3.0,BaMnO3,257.2383259452137,6.203842341526642,Hexagonal,P6_3/mmc,194.0,6/mmm,0.1,1.16.2,mp-35078,-7.6473413699999995,-2.463130096836207,,,['icsd-23874']
20.0,3.0,BaMnO3,276.8088065448443,5.765228492121007,Hexagonal,P6_3mc,186.0,mm2,0.1,1.16.2,mp-1205336,-7.667293149,-2.483081875836207,,,"['icsd-89995', 'icsd-89996']"
30.0,3.0,BaMnO3,394.21434393129783,6.072328580617819,Hexagonal,P-6m2,187.0,-6m2,0.1,1.16.2,mp-757501,-7.6488827950000005,-2.464671521836207,,,
10.0,3.0,LaMnN3,139.64132122783502,5.609525084025504,Monoclinic,C2/m,12.0,2/m,0.1,1.16.2,mp-989589,-8.729407514,-0.9079060795862077,,,
10.0,3.0,LaMnN3,131.3792039070709,5.962294418742819,Orthorhombic,Cmcm,63.0,mmm,0.1,1.16.2,mp-989554,-8.715835872,-0.8943344375862068,,,
20.0,3.0,LaMnO3,250.01810854808264,6.424936465973004,Orthorhombic,Pbam,55.0,mmm,0.1,1.16.2,mp-1272996,-8.7482045255,-2.960586819336207,,,
20.0,3.0,LaMnO3,297.1410300410424,5.406020375383018,Monoclinic,P2_1/c,14.0,2/m,0.1,1.16.2,mp-557795,-8.45312061,-2.665502903836206,,,['icsd-162003']
10.0,3.0,LaMnO3,118.730205264436,6.7647085220922,Monoclinic,C2/c,15.0,2/m,0.1,1.16.2,mp-19157,-8.785513627,-2.997895920836207,,,['icsd-150258']
20.0,3.0,LaMnO3,310.04857285439806,5.180963898577695,Orthorhombic,Pnma,62.0,mmm,0.1,1.16.2,mp-1180932,-8.293129757500001,-2.505512051336207,,,
20.0,3.0,LaMnO3,250.30489980781863,6.417574981542556,Orthorhombic,Pmc2_1,26.0,mm2,0.1,1.16.2,mp-1281528,-8.746746991,-2.9591292848362074,,,
20.0,3.0,LaMnO3,250.1558773215623,6.421398049741975,Triclinic,P-1,2.0,-1,0.1,1.16.2,mp-1278230,-8.7770562735,-2.9894385673362067,,,
20.0,3.0,LaMnO3,332.11459568010025,4.836735523395796,Monoclinic,P2_1/c,14.0,2/m,0.1,1.16.2,mp-566602,-8.503579954500001,-2.715962248336207,,,
20.0,3.0,LaMnO3,248.53597536865314,6.463251287389984,Monoclinic,C2/m,12.0,2/m,0.1,1.16.2,mp-1273769,-8.7477814135,-2.960163707336207,,,
20.0,3.0,LaMnO3,255.08175724819074,6.297394529869173,Orthorhombic,Pnma,62.0,mmm,0.1,1.16.2,mp-17554,-8.798112388,-3.0104946818362066,,,"['icsd-185279', 'icsd-168694', 'icsd-82228', 'icsd-56616', 'icsd-83761', 'icsd-50335', 'icsd-16281', 'icsd-50336', 'icsd-91175', 'icsd-167070', 'icsd-82226', 'icsd-82227', 'icsd-51653', 'icsd-88388', 'icsd-162002', 'icsd-182575', 'icsd-90424', 'icsd-182576', 'icsd-161929', 'icsd-50334', 'icsd-16280', 'icsd-161928']"
20.0,3.0,LaMnO3,245.45715843443807,6.544321106826596,Tetragonal,I4/mmm,139.0,4/mmm,0.1,1.16.2,mp-1278019,-8.706018016,-2.918400309836207,,,
20.0,3.0,LaMnO3,248.1817656076625,6.4724757632015875,Tetragonal,P4/m,83.0,4/m,0.1,1.16.2,mp-1279320,-8.7524285425,-2.964810836336207,,,
20.0,3.0,LaMnO3,333.3011408804232,4.8195168444997165,Monoclinic,P2_1/c,14.0,2/m,0.1,1.16.2,mp-645158,-8.502294801,-2.714677094836206,,,
20.0,3.0,LaMnO3,245.62877790261717,6.53974862587572,Orthorhombic,Cmmm,65.0,mmm,0.1,1.16.2,mp-1273223,-8.687858434499999,-2.900240728336206,,,
10.0,3.0,LaMnO3,123.0117361342206,6.529256936148967,Cubic,Fm-3m,225.0,m-3m,0.1,1.16.2,mp-1283081,-8.698895915,-2.911278208836207,,,
20.0,3.0,LaMnO3,248.71464164677838,6.4586083558582486,Orthorhombic,Pnnm,58.0,mmm,0.1,1.16.2,mp-1272373,-8.750783121,-2.963165414836206,,,
5.0,3.0,LaMnO3,61.36672420481146,6.544061474598911,Cubic,Pm-3m,221.0,m-3m,0.1,1.16.2,mp-19025,-8.717243282,-2.9296255758362064,,,"['icsd-29119', 'icsd-150259', 'icsd-188401']"
20.0,3.0,LaMnO3,248.67823882581766,6.459553800722036,Orthorhombic,Pnma,62.0,mmm,0.1,1.16.2,mp-1180700,-8.755401491499999,-2.9677837853362066,,,
10.0,3.0,LaMnO3,124.66110534715935,6.44286948319112,Trigonal,R-3c,167.0,-3m,0.1,1.16.2,mp-19168,-8.782970226,-2.9953525198362074,,,"['icsd-167067', 'icsd-164470', 'icsd-80370', 'icsd-55966', 'icsd-188402', 'icsd-96038', 'icsd-167063', 'icsd-55970', 'icsd-167069', 'icsd-167068', 'icsd-55971', 'icsd-167062', 'icsd-154049', 'icsd-162001', 'icsd-180179', 'icsd-55968', 'icsd-167064', 'icsd-55972', 'icsd-161927', 'icsd-90355', 'icsd-167061', 'icsd-55953', 'icsd-55967', 'icsd-167066', 'icsd-55969', 'icsd-167065', 'icsd-55965', 'icsd-55973', 'icsd-155545']"
10.0,3.0,LaMnO3,122.39876650609622,6.561955273806483,Tetragonal,P4/mmm,123.0,4/mmm,0.1,1.16.2,mp-1278738,-8.708050088,-2.920432381836207,,,
10.0,3.0,LaMnO3,123.72434334359438,6.491650791401589,Tetragonal,P4/mbm,127.0,4/mmm,0.1,1.16.2,mp-1205375,-8.75642981,-2.968812103836207,,,['icsd-180180']
5.0,3.0,CeMnO3,60.371551975903536,6.685230623331083,Cubic,Pm-3m,221.0,m-3m,0.1,1.16.2,mp-1183706,-8.780599036,-2.7935649198362063,,,
20.0,3.0,PrMnO3,237.7429455944275,6.81260699932876,Orthorhombic,Pnma,62.0,mmm,0.1,1.16.2,mp-22564,-8.703889929,-2.9472924928362074,,,"['icsd-97081', 'icsd-15718', 'icsd-97082', 'icsd-156073', 'icsd-155901', 'icsd-84922', 'icsd-155896', 'icsd-97083', 'icsd-97084']"
20.0,3.0,NdMnO3,245.81178102559846,6.67907991266509,Monoclinic,P2_1/c,14.0,2/m,0.1,1.16.2,mp-1189476,-8.706945591499998,-2.952899819836206,,,"['icsd-161926', 'icsd-161925']"
20.0,3.0,NdMnO3,235.65668274841266,6.966899940186665,Orthorhombic,Pnma,62.0,mmm,0.1,1.16.2,mp-20852,-8.71828796,-2.9642421883362062,,,"['icsd-15719', 'icsd-163728', 'icsd-247143', 'icsd-95490', 'icsd-163726', 'icsd-163724']"
20.0,3.0,NdMnO3,4031.418295284199,0.40725035426490375,Monoclinic,P2_1/c,14.0,2/m,0.1,1.16.2,mp-1182197,-4.7472334365,1.006812335163793,,,
20.0,3.0,SmMnO3,231.50675196280685,7.267318238962783,Orthorhombic,Pnma,62.0,mmm,0.1,1.16.2,mp-22203,-8.736108126,-2.9919746138362067,,,"['icsd-157391', 'icsd-95491', 'icsd-183040', 'icsd-169488', 'icsd-183039']"
5.0,3.0,SmMnO3,59.09464695105582,7.1175365612040435,Cubic,Pm-3m,221.0,m-3m,0.1,1.16.2,mp-1075973,-8.536504286,-2.7923707738362076,,,
20.0,3.0,EuMnO3,224.65083958060256,7.536527630141269,Orthorhombic,Pnma,62.0,mmm,0.1,1.16.2,mp-20614,-9.5115735725,-2.6597569273362067,,,"['icsd-95492', 'icsd-157392', 'icsd-169489']"
5.0,3.0,EuMnO3,58.274424527282676,7.263423334369363,Cubic,Pm-3m,221.0,m-3m,0.1,1.16.2,mp-1099619,-9.462677474,-2.610860828836208,,,
20.0,3.0,GdMnO3,228.9926389386748,7.546957429145372,Orthorhombic,Pnma,62.0,mmm,0.1,1.16.2,mp-510575,-10.598357227,-2.9827164938362074,,,"['icsd-169490', 'icsd-291465', 'icsd-95493', 'icsd-157393']"