material_id,formula_pretty,icsd,crystal_system,symbol,number,point_group,nsites,nelements,volume,density,energy_per_atom,formation_energy_per_atom
mp-1186349,NpSiO3,,Cubic,Pm-3m,221.0,m-3m,5.0,3.0,54.13223823303120,9.604031385652950,-9.168627902,-2.525995133000000
mp-1186346,NpSnO3,,Cubic,Pm-3m,221.0,m-3m,5.0,3.0,71.96212269995560,9.315640123650490,-8.351908698000000,-1.9924251640000000
mp-1186357,NpTaO3,,Cubic,Pm-3m,221.0,m-3m,5.0,3.0,65.86447407961450,11.74717751232450,-10.611471456,-2.682346767
mp-977184,NpTcO3,,Cubic,Pm-3m,221.0,m-3m,5.0,3.0,62.79440236587780,10.128028129511600,-9.671323104000000,-2.041626152000000
mp-977152,NpTiO3,,Cubic,Pm-3m,221.0,m-3m,5.0,3.0,60.159657548892300,9.187812747477970,-10.281836402,-3.145168835666670
mp-680932,OsPbO3,['icsd-23444'],Cubic,Fd-3m,227.0,m-3m,20.0,3.0,276.1692649119690,10.713008599289100,-7.357330362000000,-1.4013142352500000
mp-977455,PaAgO3,,Cubic,Pm-3m,221.0,m-3m,5.0,3.0,80.34031925623560,7.996811026447930,-8.276618826,-2.8391614665833300
mp-1186392,PaBeO3,,Cubic,Pm-3m,221.0,m-3m,5.0,3.0,46.95550918588980,10.186495244797200,-8.828224046000000,-3.20939531425
mp-973877,PaBO3,,Cubic,Pm-3m,221.0,m-3m,5.0,3.0,47.41571950860310,10.150622696223700,-8.444989038,-2.238164525083330
mp-1186400,PaCoO3,,Cubic,Pm-3m,221.0,m-3m,5.0,3.0,54.1024933511181,10.373049902297100,-8.596396256,-2.3037865382500000
mp-1186404,PaOsO3,,Cubic,Pm-3m,221.0,m-3m,5.0,3.0,62.12604951273310,12.542747261475200,-8.775239868,-1.658820223250000
mp-1186401,PaSiO3,,Cubic,Pm-3m,221.0,m-3m,5.0,3.0,55.782551954834100,9.14235801045292,-8.354445896,-2.39843613125
mp-1186403,PaTaO3,,Cubic,Pm-3m,221.0,m-3m,5.0,3.0,65.83394786941440,11.602190651338700,-9.864889588,-2.622387903250000
mp-862832,PaTlO3,,Cubic,Pm-3m,221.0,m-3m,5.0,3.0,83.82164361680600,9.576684616602670,-8.519211286000000,-3.1757364979166700
mp-982245,PbAuO3,,Cubic,Pm-3m,221.0,m-3m,5.0,3.0,71.41118537597390,10.514280914279300,-4.969002936,-0.6036838952500000
mp-1105697,PbCO3,"['icsd-247488', 'icsd-247486', 'icsd-247489', 'icsd-247487']",Monoclinic,P2_1/c,14.0,2/m,20.0,3.0,283.00825906007100,6.271347965135260,-7.364302346,-1.80802660675
mp-19893,PbCO3,"['icsd-247492', 'icsd-6178', 'icsd-36164', 'icsd-247490', 'icsd-166089', 'icsd-56101', 'icsd-247491', 'icsd-36554', 'icsd-247493', 'icsd-190074']",Orthorhombic,Pnma,62.0,mmm,20.0,3.0,268.75173301996100,6.604025394102400,-7.3662652395,-1.80998950025
mp-20716,PbSeO3,"['icsd-9380', 'icsd-1271', 'icsd-98376', 'icsd-22371']",Monoclinic,P2_1/m,11,2/m,10,3,158.841814971155,6.98660797379455,-5.866225149,-1.45650021271875
mp-630329,PbSeO3,['icsd-94763'],Monoclinic,P2_1/c,14,2/m,40,3,638.570873741933,6.95155721429264,-5.8631315865,-1.45340665021875
mp-21190,PbSO3,['icsd-30993'],Monoclinic,P2_1/m,11,2/m,10,3,154.013032693336,6.19443377816386,-6.254194124,-1.716361509875
mp-20507,PbSO3,"['icsd-68889', 'icsd-35360']",Orthorhombic,Pnma,62,mmm,20,3,309.875476002605,6.15746392260508,-6.2557454225,-1.717912808375
mp-540785,PCF3,['icsd-23899'],Tetragonal,P4_2/nmc,137.0,4/mmm,40.0,3.0,822.0908860582710,1.6155892578122600,-5.01862924875,-0.9433482684166660
mp-556383,PCF3,['icsd-15397'],Monoclinic,P2_1/c,14.0,2/m,100.0,3.0,1668.3480336961200,1.990234018376030,-5.5816849013,-1.5064039209666700
mp-546684,PdSeO3,['icsd-415955'],Monoclinic,C2/m,12,2/m,10,3,151.68456217721,5.10973052010448,-5.727142663,-1.02397077871875
mp-545482,PdSeO3,['icsd-249504'],Monoclinic,P2_1/m,11,2/m,10,3,154.684899519372,5.0106199066219,-5.736829246,-1.03365736171875
mp-1186533,PmBeO3,,Cubic,Pm-3m,221.0,m-3m,5.0,3.0,48.16743617261040,6.964168280987620,-7.552489682000000,-2.8864854177500000
mp-1186557,PmErO3,,Cubic,Pm-3m,221.0,m-3m,5.0,3.0,77.65505796283770,7.703569739272000,-8.14394997,-3.31228451675
mp-1186571,PmEuO3,,Cubic,Pm-3m,221.0,m-3m,5.0,3.0,87.94284464083900,6.513585180689890,-8.818842670000000,-2.8493206187500000
mp-1186597,PmInO3,,Cubic,Pm-3m,221.0,m-3m,5.0,3.0,71.27102965144370,7.17178954663811,-6.906561624,-2.43810318675
mp-1186600,PmMgO3,,Cubic,Pm-3m,221.0,m-3m,5.0,3.0,59.091597506918500,6.1064596003678100,-7.065885798000000,-2.827708096750000
mp-1232288,PmMgS3,,Monoclinic,C2/m,12.0,2/m,10.0,3.0,273.0094374402530,3.229728073255960,-5.29014272,-1.5381083253750000
mp-1232152,PmMgSe3,,Monoclinic,C2/m,12.0,2/m,20.0,3.0,554.4024139692460,4.866400605566890,-4.7886948835,-1.4209835224062500
mp-1232203,PmMgSe3,,Trigonal,R-3,148.0,-3,30.0,3.0,832.9112338615450,4.858760693908770,-4.847646200666670,-1.4799348395729200
mp-1237948,PmMgSe3,,Monoclinic,C2/m,12.0,2/m,10.0,3.0,296.67648173797600,4.546946605377540,-4.7539764,-1.3862650389062500
mp-983513,PmRuO3,,Cubic,Pm-3m,221.0,m-3m,5.0,3.0,62.278737736241200,7.840745527194330,-7.959914948,-2.1869127487500000
mp-2647018,PmTiO3,,Cubic,Pm-3m,221.0,m-3m,5.0,3.0,60.247856910458600,6.638677206043340,-8.958279804,-3.4610597094166700
mp-1186669,PmWO3,,Cubic,Pm-3m,221.0,m-3m,5.0,3.0,70.30692641341700,8.90032582576115,-8.78951494,-2.27976720275
mp-1195541,PPbO3,['icsd-429745'],Orthorhombic,Cmc2_1,36.0,mm2,40.0,3.0,671.9264895888820,5.657758460540190,-6.762833337000000,-1.9696301949166700
mp-20199,PPbS3,['icsd-647906'],Monoclinic,P2_1/c,14.0,2/m,20.0,3.0,476.69425217727600,4.659023174000380,-5.0336123155,-0.7265524800416670
mp-20316,PPbSe3,"['icsd-62230', 'icsd-647914', 'icsd-647911']",Monoclinic,P2_1/c,14.0,2/m,20.0,3.0,535.998094170855,5.8869263836214,-4.5211461670000000,-0.5984093650729160
mp-8218,PrAlO3,"['icsd-90568', 'icsd-35549', 'icsd-90571', 'icsd-90570', 'icsd-90569', 'icsd-90567']",Cubic,Pm-3m,221.0,m-3m,10.0,3.0,106.22475005987300,6.74964059796787,-8.314810974,-3.64150143025
mp-3466,PrAlO3,"['icsd-90563', 'icsd-165847', 'icsd-165841', 'icsd-90561', 'icsd-165845', 'icsd-90562', 'icsd-165840', 'icsd-90566', 'icsd-165843', 'icsd-165844', 'icsd-90558', 'icsd-90557', 'icsd-90559', 'icsd-165842', 'icsd-165848', 'icsd-90565', 'icsd-90560', 'icsd-165846', 'icsd-90564']",Trigonal,R-3c,167.0,-3m,10.0,3.0,107.09578105966000,6.694744446690230,-8.332834387,-3.65952484325
mp-1186742,PrBeO3,,Cubic,Pm-3m,221.0,m-3m,5.0,3.0,49.85265037165070,6.592440355136670,-7.528997214,-2.856920263250000
mp-976727,PrBiO3,,Cubic,Pm-3m,221.0,m-3m,5.0,3.0,88.05187400348730,7.503595689079900,-6.625798072,-1.9335058682500000
mp-861504,PrBO3,['icsd-421745'],Orthorhombic,Pnma,62.0,mmm,20.0,3.0,239.34951052552800,5.542315602904410,-8.710246637500000,-3.450173905583330
mp-862754,PrBS3,"['icsd-710040', 'icsd-421072']",Orthorhombic,Pna2_1,33.0,mm2,20.0,3.0,415.0017737104430,3.96788955659386,-6.328215389,-1.554285963708330
mp-20090,PrCoO3,"['icsd-164819', 'icsd-164818', 'icsd-172045', 'icsd-88738', 'icsd-164817', 'icsd-164820', 'icsd-97111']",Orthorhombic,Pnma,62.0,mmm,20.0,3.0,219.46802067311400,7.500799709937000,-7.851972208000000,-2.5061142712500000
mp-20427,PrCoO3,['icsd-28922'],Cubic,Pm-3m,221.0,m-3m,5.0,3.0,55.69128310911390,7.389781550642460,-7.73563128,-2.38977334325
mp-1105822,PrCrO3,"['icsd-251098', 'icsd-251097']",Orthorhombic,Pnma,62.0,mmm,20.0,3.0,234.03185092916100,6.837139433917560,-8.9801366095,-3.125332737750000
mp-19353,PrCrO3,['icsd-28932'],Cubic,Pm-3m,221.0,m-3m,5.0,3.0,58.71817644999850,6.812662166642100,-8.86211335,-3.00730947825
mp-861512,PrCrSe3,['icsd-626544'],Orthorhombic,Pnma,62.0,mmm,20.0,3.0,448.1941782068800,6.369317066277700,-6.479408272000000,-1.495070740406250
mp-1186515,PrCuO3,,Cubic,Pm-3m,221.0,m-3m,5.0,3.0,56.9104200105911,7.366070383638500,-7.060295566000000,-2.3162598542500000
mp-1199144,PrErS3,['icsd-630955'],Monoclinic,P2_1/m,11.0,2/m,40.0,3.0,924.8304558905150,5.8082716682446800,-6.724793504500000,-2.3731986713750000
mp-22341,PrFeO3,"['icsd-188202', 'icsd-27274', 'icsd-153963', 'icsd-63645', 'icsd-96492', 'icsd-189725']",Orthorhombic,Pnma,62.0,mmm,20.0,3.0,242.4558416265240,6.705028763705310,-8.378956726,-2.7607581062500000
mp-4535,PrGaO3,"['icsd-153163', 'icsd-73766', 'icsd-73765']",Orthorhombic,Pnma,62.0,mmm,20.0,3.0,242.1773823202710,7.093367763086660,-7.5675018090000000,-3.0376882267500000
mp-9833,PrGaO3,['icsd-76049'],Cubic,Pm-3m,221.0,m-3m,5.0,3.0,97.53781528000670,4.403044172580140,-6.122358972,-1.59254538975
mp-1186747,PrHfO3,,Cubic,Pm-3m,221.0,m-3m,5.0,3.0,70.23453716496480,8.686255885744460,-9.369105914000000,-3.453473730250000
mp-755462,PrHfO3,,Orthorhombic,Pnma,62.0,mmm,20.0,3.0,276.6598444711520,8.820581288157680,-9.4575905385,-3.5419583547500000
mp-1105130,PrInO3,['icsd-238839'],Orthorhombic,Pnma,62.0,mmm,20.0,3.0,277.68087306341400,7.265107067968360,-7.3359782035,-2.8614470797500000
mp-21872,PrLuO3,['icsd-50758'],Orthorhombic,Pnma,62.0,mmm,20.0,3.0,283.33533637597400,8.530176157036790,-8.746118879000000,-3.91773439725
mp-1206692,PrLuS3,,Orthorhombic,Cmcm,63.0,mmm,10.0,3.0,242.90651494156600,5.633918482176530,-6.565455062,-2.223213886875
mp-1078537,PrLuS3,,Orthorhombic,Cmcm,63.0,mmm,10.0,3.0,231.7782856755930,5.904416369209880,-6.717461856,-2.3752206808750000
mp-13326,PrLuSe3,['icsd-249620'],Orthorhombic,Cmcm,63.0,mmm,10.0,3.0,262.7259017084970,6.987287394207650,-6.116312676,-2.15839453440625
mp-1232362,PrMgS3,,Trigonal,R-3,148.0,-3,30.0,3.0,733.9216165750520,3.548697343120510,-5.341493958333330,-1.583386877208330
mp-1232298,PrMgS3,,Monoclinic,C2/m,12.0,2/m,20.0,3.0,567.9307150899410,3.057257539341620,-5.2816790065,-1.5235719253750000
mp-1237949,PrMgS3,,Monoclinic,C2/m,12.0,2/m,10.0,3.0,263.6757789916880,3.2925103457969400,-5.229823239,-1.4717161578750000
mp-1232200,PrMgSe3,,Trigonal,R-3,148.0,-3,30.0,3.0,857.3345140211350,4.672789041836670,-4.844908553666670,-1.471124506072920
mp-1232136,PrMgSe3,,Monoclinic,C2/m,12.0,2/m,10.0,3.0,302.55383842922800,4.413697457511550,-4.748535748,-1.3747517004062500
mp-22564,PrMnO3,"['icsd-97081', 'icsd-15718', 'icsd-97082', 'icsd-156073', 'icsd-155901', 'icsd-84922', 'icsd-155896', 'icsd-97083', 'icsd-97084']",Orthorhombic,Pnma,62.0,mmm,20.0,3.0,237.7429455944280,6.81260699932876,-8.703889929,-2.9472924928362100
mp-975913,PrNbO3,,Cubic,Pm-3m,221.0,m-3m,5.0,3.0,68.26407903161860,6.855145839496560,-8.87407588,-2.92962049425
mp-19170,PrNiO3,"['icsd-69187', 'icsd-69186']",Trigonal,R-3c,167.0,-3m,10.0,3.0,110.65153943462900,7.431405465962990,-7.486645718,-2.40642400425
mp-22280,PrNiO3,"['icsd-246703', 'icsd-67720', 'icsd-246702', 'icsd-69184', 'icsd-69185', 'icsd-92201', 'icsd-67721', 'icsd-69787', 'icsd-69183', 'icsd-67719', 'icsd-67718', 'icsd-69786', 'icsd-246704', 'icsd-246701']",Orthorhombic,Pnma,62.0,mmm,20.0,3.0,222.64609009835600,7.386578893960930,-7.490565825000000,-2.410344111250000
mp-1186471,PrPbO3,,Cubic,Pm-3m,221.0,m-3m,5.0,3.0,93.4090064158571,7.041604055881920,-6.65096289,-1.9842390982500000
mp-4789,PrRhO3,"['icsd-172348', 'icsd-172354']",Orthorhombic,Pnma,62.0,mmm,20.0,3.0,247.07173136147800,7.844914415455230,-7.872002894,-2.474946942250000
mp-20186,PrRuO3,['icsd-75570'],Orthorhombic,Pnma,62.0,mmm,20.0,3.0,252.94890109212800,7.614442683349160,-8.263661768,-2.4845868822500000
mp-559756,PrScO3,"['icsd-99539', 'icsd-195600', 'icsd-710019']",Orthorhombic,Pnma,62.0,mmm,20.0,3.0,263.56275255678500,5.893649056518230,-9.072905108500000,-3.8822169097500000
mp-1189962,PrScS3,,Orthorhombic,Pnma,62.0,mmm,20.0,3.0,451.3261716177130,4.1510489816375300,-7.007649549,-2.303104656875
mp-753948,PrTiO3,,Trigonal,R-3c,167.0,-3m,10.0,3.0,124.52131208438200,6.314912054071360,-9.03430902,-3.531016238916670
mp-754696,PrTiO3,,Cubic,Pm-3m,221.0,m-3m,5.0,3.0,61.31381091813310,6.412430763114480,-8.988493486,-3.485200704916670
mp-754046,PrTlO3,,Cubic,Pm-3m,221.0,m-3m,5.0,3.0,100.2258791905030,6.516001688581740,-6.1692862900000000,-1.772563282916670
mp-1201800,PrTmS3,['icsd-649289'],Monoclinic,P2_1/m,11.0,2/m,40.0,3.0,918.1804137086370,5.874575919442770,-6.70588549925,-2.372667343458330
mp-1209329,PrVO3,['icsd-185833'],Orthorhombic,Pnma,62.0,mmm,20.0,3.0,239.62576821509100,6.648298263782470,-8.9472159065,-3.20624031475
mp-1069346,PrVO3,['icsd-28927'],Cubic,Pm-3m,221.0,m-3m,5.0,3.0,60.972474715206300,6.532060516745840,-8.735173972000000,-2.994198380250000
mp-975564,PuBO3,,Cubic,Pm-3m,221.0,m-3m,5.0,3.0,45.229927574695200,11.117119422654300,-9.517090566,-2.359631319083330
mp-1209736,PuCrO3,,Orthorhombic,Pnma,62.0,mmm,20.0,3.0,240.1915793472140,9.51267276546756,-10.649661856,-2.89747146925
mp-2647102,PuCuO3,,Cubic,Pm-3m,221.0,m-3m,5.0,3.0,55.87514304904540,10.566327024609400,-8.737421646,-2.095999419250000
mp-1186662,PuGaO3,,Cubic,Pm-3m,221.0,m-3m,5.0,3.0,58.10927082340730,10.336598193475900,-9.105156530000000,-2.67795643275
mp-1186797,PuInO3,,Cubic,Pm-3m,221.0,m-3m,5.0,3.0,71.40333675976990,9.46082107196941,-8.571502524,-2.19958488525
mp-975596,PuIrO3,,Cubic,Pm-3m,221.0,m-3m,5.0,3.0,70.66977267988910,11.377682787854000,-8.761225264,-1.1719575352500000
mp-1186787,PuMgO3,,Cubic,Pm-3m,221.0,m-3m,5.0,3.0,56.08996317733970,9.364132025367190,-8.940718498000000,-2.79908159525
mp-1188081,PuNiO3,,Cubic,Pm-3m,221.0,m-3m,5.0,3.0,53.90057700340980,10.803912212138700,-9.139632452,-2.1620242232500000
mp-1186799,PuPbO3,,Cubic,Pm-3m,221.0,m-3m,5.0,3.0,82.77001583757490,10.0149565599103,-9.128231406000000,-2.5641210992500000
mp-975588,PuPtO3,,Cubic,Pm-3m,221.0,m-3m,5.0,3.0,66.65422143645640,12.134550585315100,-8.654109030000000,-1.6183014732500000
mp-1186801,PuSbO3,,Cubic,Pm-3m,221.0,m-3m,5.0,3.0,80.38123021840790,8.547538440992330,-8.76589625,-2.1185151092500000
mp-1186812,PuTiO3,,Cubic,Pm-3m,221.0,m-3m,5.0,3.0,60.121389727310600,9.386999278252840,-10.71928681,-3.318607513916670
mp-2647162,PuTlO3,,Tetragonal,P4/mbm,127.0,4/mmm,20.0,3.0,325.4567100469090,10.130513180308400,-8.9094908055,-2.615381283416670
mp-1209729,PuVO3,,Orthorhombic,Pnma,62.0,mmm,20.0,3.0,243.51123764070600,9.354225699896660,-10.625839832,-2.987477725250000
mp-975463,RbAcO3,,Cubic,Pm-3m,221.0,m-3m,5.0,3.0,99.64939924630730,6.006738421990210,-6.215895894,-2.22754085125
mp-998226,RbAgBr3,,Tetragonal,P4mm,99.0,4mm,5.0,3.0,161.60527476866700,4.449688432152710,-2.955828678,-1.2613936648333300
mp-998201,RbAgCl3,,Monoclinic,Pm,6.0,m,5.0,3.0,137.97069477505000,3.606963466959940,-3.29261896,-1.4208789488333300
mp-1975771,RbAgCl3,,Cubic,Pm-3m,221.0,m-3m,5.0,3.0,131.61575279448300,3.7811222820855700,-3.290650806,-1.4189107948333300
mp-7767,RbAgF3,['icsd-23153'],Tetragonal,I4/mcm,140.0,4/mmm,10.0,3.0,165.15016611284100,5.034021616981130,-4.0415666870000000,-2.1320612913333300
mp-1055491,RbAgF3,,Cubic,Pm-3m,221.0,m-3m,5.0,3.0,82.1683324390747,5.058941088262320,-4.040123524,-2.130618128333330
mp-867844,RbAgF3,,Orthorhombic,Cmmm,65.0,mmm,5.0,3.0,77.92751683188360,5.334248671452060,-3.92832923,-2.0188238343333300
mp-975421,RbAgO3,,Cubic,Pm-3m,221.0,m-3m,5.0,3.0,77.07990692192170,5.199083434449310,-4.1872064900000000,-0.4565752480833330
mp-975427,RbAlO3,,Cubic,Pm-3m,221.0,m-3m,5.0,3.0,61.35272302053710,4.34258485798466,-5.839371856,-1.9261366487500000
mp-975425,RbAsO3,,Cubic,Pm-3m,221.0,m-3m,5.0,3.0,61.135790683882700,5.660117370269650,-5.457235226,-1.3612915037500000
mp-27300,RbAuBr3,['icsd-9577'],Monoclinic,C2/m,12.0,2/m,10.0,3.0,341.6486760124490,5.075649373663880,-3.018250017,-1.2355498045000000
mp-1110999,RbAuBr3,,Cubic,Pm-3m,221.0,m-3m,5.0,3.0,160.72210162556100,5.394680852468060,-2.971952624,-1.1892524115
mp-1110791,RbAuCl3,,Cubic,Pm-3m,221.0,m-3m,5.0,3.0,137.67049400123700,4.689505785122910,-3.2828132080000000,-1.3228079975000000
mp-1111644,RbAuF3,,Cubic,Pm-3m,221.0,m-3m,5.0,3.0,92.00290804343300,6.126285436095050,-3.9116584360000000,-1.9138878410000000
mp-568666,RbAuI3,['icsd-170791'],Monoclinic,C2/m,12.0,2/m,10.0,3.0,421.04638379729900,5.230695886886690,-2.675341361,-0.9404383365000000
mp-975405,RbAuO3,,Cubic,Pm-3m,221.0,m-3m,5.0,3.0,75.00835937393520,7.315133863495320,-4.343844862,-0.5249484207500000
mp-1219638,RbBaN3,,Orthorhombic,Fddd,70.0,mmm,20.0,3.0,647.7521092442460,2.715455376167450,-4.2773274375,1.3044713200000000
mp-975387,RbBaO3,,Cubic,Pm-3m,221.0,m-3m,5.0,3.0,124.63922265174300,3.6077114883669100,-4.828164082,-1.28024905275
mp-975031,RbBeH3,['icsd-173449'],Monoclinic,P2_1/c,14.0,2/m,20.0,3.0,391.3367471080430,1.6549314477572400,-3.1727127655000000,-0.19308775100000000
mp-1197886,RbBeN3,,Orthorhombic,Pbca,61.0,mmm,80.0,3.0,1799.3819182783000,2.015480684362830,-5.092030375125,0.8538559673750010
mp-975394,RbBeO3,,Cubic,Pm-3m,221.0,m-3m,5.0,3.0,58.46279912583210,4.046856990886120,-4.961337694,-1.0493350797500000
mp-1173046,RbBiF3,,Tetragonal,P4/nmm,129.0,4/mmm,10.0,3.0,234.25797591362100,4.982417431584870,-4.424616943,-2.313524922
mp-677028,RbBiF3,,Triclinic,P1,1.0,1,10.0,3.0,221.80384188517700,5.262176762853510,-4.658075654000000,-2.5469836330000000
mp-975384,RbBiO3,,Cubic,Pm-3m,221.0,m-3m,5.0,3.0,77.29908558651590,7.356434052251260,-5.390518846,-1.4583009787500000
mp-975385,RbBO3,,Cubic,Pm-3m,221.0,m-3m,5.0,3.0,50.39388070820400,4.754100925449180,-5.098590140000000,-0.5985917445833340
mp-28872,RbBrO3,['icsd-74768'],Trigonal,R3m,160,3m,5,3,88.9175851758495,3.98469234111268,-4.545229842,-1.07050413475
mp-9047,RbBS3,['icsd-73084'],Monoclinic,P2_1/c,14.0,2/m,20.0,3.0,479.1281739873630,2.6682652496689500,-5.0318684225,-1.0180133337083300
mp-10552,RbBSe3,['icsd-411343'],Monoclinic,P2_1/c,14.0,2/m,20.0,3.0,579.4157869268110,3.819179354541520,-4.462325289000000,-0.8327932337395840
mp-1209238,RbCaBr3,,Orthorhombic,Pnma,62.0,mmm,20.0,3.0,704.5146197337430,3.443646614513650,-3.863515468,-2.3344716795000000
mp-998198,RbCaBr3,,Monoclinic,Cm,8.0,m,5.0,3.0,189.3354570837070,3.203440367813510,-3.839356738,-2.3103129495000000
mp-998536,RbCaBr3,,Orthorhombic,Pnma,62.0,mmm,20.0,3.0,682.9501196873720,3.5523815212625700,-3.8627330005000000,-2.3336892120000000
mp-1209227,RbCaBr3,,Cubic,Pm-3m,221.0,m-3m,5.0,3.0,188.79224295977700,3.212657664168920,-3.8398539480000000,-2.3108101595
mp-998324,RbCaCl3,,Trigonal,R3c,161.0,3m,10.0,3.0,305.2231982181200,2.523313970760940,-4.319587392,-2.6132386055
mp-3654,RbCaF3,"['icsd-201253', 'icsd-201252']",Cubic,Pm-3m,221.0,m-3m,5.0,3.0,88.37611823763210,3.42984602336079,-5.462588440000000,-3.718474269000000
mp-23949,RbCaH3,"['icsd-65195', 'icsd-165895', 'icsd-168717', 'icsd-165894']",Cubic,Pm-3m,221.0,m-3m,5.0,3.0,92.40505411028690,2.3104242386256000,-3.11397772,-0.48111530250000000
mp-998325,RbCaI3,,Monoclinic,Cm,8.0,m,5.0,3.0,239.40448846704500,3.511476336195660,-3.2808897300000000,-1.7996431295000000
mp-998592,RbCaI3,,Orthorhombic,Pnma,62.0,mmm,20.0,3.0,853.7382408155220,3.9387397955983400,-3.3267970160000000,-1.8455504155000000
mp-975382,RbCaO3,,Cubic,Pm-3m,221.0,m-3m,5.0,3.0,98.39510984595380,2.9287694502826000,-5.050003676,-1.48476365875
mp-27400,RbCdBr3,['icsd-808'],Orthorhombic,Pnma,62.0,mmm,20.0,3.0,640.6612618927100,4.536791354845080,-2.930630724,-1.6181289595
mp-23390,RbCdCl3,"['icsd-33552', 'icsd-200206', 'icsd-82223']",Orthorhombic,Pnma,62.0,mmm,20.0,3.0,551.8598510355170,3.661790227997030,-3.317302857,-1.8274960945
mp-6951,RbCdF3,['icsd-49587'],Cubic,Pm-3m,221.0,m-3m,5.0,3.0,86.64313367399820,4.884729257302880,-4.23332982,-2.705757673
mp-1209203,RbCdN3,,Cubic,Pm-3m,221.0,m-3m,5.0,3.0,96.55538772430370,4.125730369617650,-3.7247870120000000,1.6577947095000000
mp-975380,RbCdO3,,Cubic,Pm-3m,221.0,m-3m,5.0,3.0,89.05753605405580,4.584545925800000,-4.075698602,-0.72700060875
mp-23011,RbClO3,"['icsd-36260', 'icsd-10283']",Trigonal,R3m,160,3m,5,3,95.6428246911321,2.93275109237769,-4.678860798,-1.14503342475
mp-31271,RbCO3,['icsd-412971'],Monoclinic,P2_1/c,14.0,2/m,40.0,3.0,665.1907820163020,2.9052686857483000,-6.735221038250000,-1.7253678985000000
mp-1206319,RbCoBr3,,Hexagonal,P6_3/mmc,194.0,6/mmm,10.0,3.0,298.40385942819300,4.274975768801790,-3.8331921640000000,-1.2836047925000000
mp-1209412,RbCoBr3,,Hexagonal,P6_3cm,185.0,6mm,30.0,3.0,919.6704571121460,4.161281658578610,-3.653978307333330,-1.1043909358333300
mp-1209578,RbCoBr3,,Trigonal,P3c1,158.0,3m,30.0,3.0,902.0031510365920,4.242787622991500,-3.7853604970000000,-1.2357731255
mp-1209410,RbCoBr3,,Trigonal,P-3c1,165.0,-3m,30.0,3.0,918.6546784473610,4.165882888209420,-3.6987378500000000,-1.1491504785
mp-27707,RbCoCl3,['icsd-24305'],Hexagonal,P6_3/mmc,194.0,6/mmm,10.0,3.0,253.43432316738300,3.286032947975300,-4.257212357000000,-1.5303199875000000