nsites,nelements,formula_pretty,volume,density,crystal_system,symbol,number,point_group,symprec,version,material_id,energy_per_atom,formation_energy_per_atom,e_total,e_electronic,icsd
5.0,3.0,BaTmO3,83.69011508040276,7.02904506046517,Cubic,Pm-3m,221.0,m-3m,0.1,1.16.2,mp-1183394,-7.442776868,-3.195801568583333,,,
5.0,3.0,BaYbO3,85.05715820933828,6.996229679403861,Cubic,Pm-3m,221.0,m-3m,0.1,1.16.2,mp-1183406,-6.1351705260000005,-2.47544065525,,,
5.0,3.0,BaHfO3,72.50319461578196,8.332451498508037,Cubic,Pm-3m,221.0,m-3m,0.1,1.16.2,mp-998552,-9.130724048000001,-3.7874780272500006,40.698198627158774,4.648779110002327,
5.0,3.0,BaHfS3,125.8768336086791,5.435170255671467,Cubic,Pm-3m,221.0,m-3m,0.1,1.16.2,mp-1383356,-6.969186516000001,-2.1120838018750008,,,
20.0,3.0,BaHfS3,496.25011988220575,5.514654763774347,Orthorhombic,Pnma,62.0,mmm,0.1,1.16.2,mp-998419,-6.9899430095,-2.132840295375,,,
5.0,3.0,BaHfS3,118.6370499391143,5.7668495824796535,Orthorhombic,Cmmm,65.0,mmm,0.1,1.16.2,mp-998361,-5.426521662000001,-0.5694189478750005,,,
5.0,3.0,BaHfS3,125.84335405165709,5.436616236620325,Trigonal,R3m,160.0,3m,0.1,1.16.2,mp-998352,-6.96909416,-2.111991445875,,,
20.0,3.0,BaHfS3,493.2895787527485,5.547751676715811,Orthorhombic,Pnma,62.0,mmm,0.1,1.16.2,mp-1105549,-6.9974492205,-2.1403465063750007,58.18681614999999,8.556717976666667,['icsd-615918']
5.0,3.0,BaTaO3,70.48829628052674,8.628535380730046,Cubic,Pm-3m,221.0,m-3m,0.1,1.16.2,mp-754678,-8.995048194,-3.2716844532500007,,,
10.0,3.0,BaTaS3,238.4304913891586,5.773115876741495,Hexagonal,P6_3/mmc,194.0,6/mmm,0.1,1.16.2,mp-4001,-7.022248309,-1.785027874875,,,"['icsd-616077', 'icsd-659541', 'icsd-16083']"
10.0,3.0,BaTaSe3,271.8677044141515,6.7816541007704165,Hexagonal,P6_3/mmc,194.0,6/mmm,0.1,1.16.2,mp-1078588,-6.417136058999999,-1.5642386584062493,,,"['icsd-616129', 'icsd-659547']"
20.0,3.0,BaWN3,340.15347524074014,7.0919324591152,Monoclinic,P2_1/c,14.0,2/m,0.1,1.16.2,mp-989622,-8.8003423065,-0.8230243174999998,17.38289585,8.101629743333334,
10.0,3.0,BaWN3,173.67795895194058,6.944880878085909,Monoclinic,C2/m,12.0,2/m,0.1,1.16.2,mp-989636,-8.790327832,-0.8130098430000003,,,
5.0,3.0,BaWO3,72.21768246815921,8.488409149649463,Cubic,Pm-3m,221.0,m-3m,0.1,1.16.2,mp-1183395,-8.40795793,-2.4645236692500005,,,
20.0,3.0,BaReN3,383.35537609112504,6.33372480850784,Monoclinic,C2/c,15.0,2/m,0.1,1.16.2,mp-989637,-8.574175465,-0.6995780849999989,,,
5.0,3.0,BaReO3,67.15769002397445,9.186494240340954,Cubic,Pm-3m,221.0,m-3m,0.1,1.16.2,mp-1183298,-8.21331388,-2.3726002282499996,,,
5.0,3.0,BaOsO3,67.13281089520898,9.289408158973453,Cubic,Pm-3m,221.0,m-3m,0.1,1.16.2,mp-781625,-7.637092357999999,-2.03981065725,,,['icsd-237730']
5.0,3.0,BaIrO3,67.78231600459345,9.249072757378565,Cubic,Pm-3m,221.0,m-3m,0.1,1.16.2,mp-5660,-7.000139584,-1.8806445332500004,,,"['icsd-248378', 'icsd-65466', 'icsd-173889']"
30.0,3.0,BaIrO3,427.21633936657656,8.804769592656054,Monoclinic,C2/m,12.0,2/m,0.1,1.16.2,mp-542897,-7.127117726333334,-2.0076226755833337,,,"['icsd-69720', 'icsd-161961', 'icsd-173848']"
30.0,3.0,BaIrO3,426.1880020632002,8.826014378938,Monoclinic,C2/c,15.0,2/m,0.1,1.16.2,mp-4307,-7.096196429000001,-1.9767013782500007,,,"['icsd-260303', 'icsd-173850']"
5.0,3.0,BaPtO3,70.864454291593,8.913980135863296,Cubic,Pm-3m,221.0,m-3m,0.1,1.16.2,mp-1183290,-6.279181574,-1.7131466952499999,,,
70.0,3.0,BaPtO3,1042.8133825691384,8.480501764111574,Hexagonal,P6_3/mmc,194.0,6/mmm,0.1,1.16.2,mp-1214788,-6.373782275142857,-1.8077473963928565,,,
5.0,3.0,BaAuO3,74.70777290092101,8.49724724234547,Cubic,Pm-3m,221.0,m-3m,0.1,1.16.2,mp-1183287,-5.472031942,-1.4654473272500006,,,
5.0,3.0,BaTlO3,82.32661349927436,7.8604738046438625,Cubic,Pm-3m,221.0,m-3m,0.1,1.16.2,mp-1183393,-5.525285378,-1.7009485339166666,,,
10.0,3.0,BaPbO3,159.25972054852807,8.185414704735301,Orthorhombic,Imma,74.0,mmm,0.1,1.16.2,mp-22230,-6.203951158000001,-2.1096135292500002,,,"['icsd-154038', 'icsd-245601', 'icsd-67811', 'icsd-15933', 'icsd-252031', 'icsd-51657', 'icsd-245602', 'icsd-245600', 'icsd-154039', 'icsd-78681', 'icsd-94313', 'icsd-94312']"
5.0,3.0,BaPbO3,83.00858149731611,7.852241508861981,Cubic,Pm-3m,221.0,m-3m,0.1,1.16.2,mp-21280,-6.176932494,-2.0825948652499995,,,"['icsd-245604', 'icsd-245606', 'icsd-245607', 'icsd-72269', 'icsd-245605']"
10.0,3.0,BaPbO3,165.49154870311418,7.877180851020856,Monoclinic,C2/m,12.0,2/m,0.1,1.16.2,mp-20461,-6.203899323,-2.10956169425,33.22739842333363,8.877412583333335,"['icsd-51656', 'icsd-67299']"
5.0,3.0,BaPbO3,101.85659215140905,6.399226750646413,Cubic,Pm-3m,221.0,m-3m,0.1,1.16.2,mp-561598,-5.108779098,-1.01444146925,,,['icsd-51659']
10.0,3.0,BaPbO3,159.04492951661564,8.196469151276947,Tetragonal,I4/mcm,140.0,4/mmm,0.1,1.16.2,mp-20991,-6.201109751,-2.1067721222499998,,,"['icsd-245603', 'icsd-51658']"
5.0,3.0,BaBiO3,86.82725775700082,7.540948198681999,Cubic,Pm-3m,221.0,m-3m,0.1,1.16.2,mp-545783,-6.342794462,-2.22288842125,,,['icsd-151896']
10.0,3.0,BaBiO3,194.21786912608698,6.7425294688418225,Triclinic,P1,1.0,1,0.1,1.16.2,mp-644369,-5.417050556,-1.2971445152500003,,,
5.0,3.0,BaBiO3,87.31982579640245,7.498409977429533,Trigonal,R32,155.0,32,0.1,1.16.2,mp-1227955,-6.34115627,-2.22125022925,,,
10.0,3.0,BaBiO3,173.5986381818341,7.543375453133814,Cubic,Fm-3m,225.0,m-3m,0.1,1.16.2,mp-23438,-6.339119297,-2.2192132562499998,,,"['icsd-68715', 'icsd-172759', 'icsd-68714', 'icsd-81315']"
20.0,3.0,BaBiO3,334.66604672074277,7.825829472632553,Monoclinic,P2_1/c,14.0,2/m,0.1,1.16.2,mp-559051,-6.364005464,-2.2440994232500002,,,['icsd-172756']
10.0,3.0,BaBiO3,167.31160052336446,7.826831503984305,Monoclinic,C2/m,12.0,2/m,0.1,1.16.2,mp-22942,-6.36393313,-2.2440270892500003,,,"['icsd-61499', 'icsd-151894', 'icsd-172757', 'icsd-28161', 'icsd-28163', 'icsd-1430', 'icsd-67073', 'icsd-1431', 'icsd-28162', 'icsd-87326']"
10.0,3.0,BaBiO3,167.38710722210985,7.823300896291097,Trigonal,R-3,148.0,-3,0.1,1.16.2,mp-23482,-6.362595421,-2.2426893802500003,,,"['icsd-28165', 'icsd-172758', 'icsd-151895', 'icsd-28164', 'icsd-28166']"
10.0,3.0,BaBiO3,207.72494216352482,6.304104323338448,Triclinic,P1,1.0,1,0.1,1.16.2,mp-1182285,-5.720806651,-1.6009006102500003,,,
40.0,3.0,BaBiSe3,1254.1615237266026,6.177229599398782,Orthorhombic,P2_12_12_1,19.0,222,0.1,1.16.2,mp-27365,-4.57654842675,-1.32710872615625,,,['icsd-10505']
20.0,3.0,BaThO3,367.7631283410378,7.537982410796209,Orthorhombic,Pnma,62.0,mmm,0.1,1.16.2,mp-1189614,-8.610439182,-3.7758593172500006,,,['icsd-189333']
5.0,3.0,BaThO3,97.34330038250651,7.119627087536885,Cubic,Pm-3m,221.0,m-3m,0.1,1.16.2,mp-8037,-8.527033092,-3.692453227250001,,,['icsd-29110']
5.0,3.0,BaPaO3,90.75101233528245,7.618469715769435,Cubic,Pm-3m,221.0,m-3m,0.1,1.16.2,mp-8557,-8.825384121999999,-3.57064297525,,,['icsd-61315']
20.0,3.0,BaUO3,344.11620657799807,8.171612091758092,Orthorhombic,Pnma,62.0,mmm,0.1,1.16.2,mp-35730,-9.097313798,-3.4872235812500008,,,
20.0,3.0,BaUS3,571.3987910011806,5.4814866273958405,Orthorhombic,Pnma,62.0,mmm,0.1,1.16.2,mp-3601,-7.1465245495000005,-2.022577639375001,,,"['icsd-23289', 'icsd-23424', 'icsd-425333']"
5.0,3.0,BaNpO3,85.63207796094373,8.18954193461837,Cubic,Pm-3m,221.0,m-3m,0.1,1.16.2,mp-8558,-9.31906119,-3.3776970389999996,,,['icsd-61316']
5.0,3.0,BaPuO3,84.09111734321918,8.47784271870357,Cubic,Pm-3m,221.0,m-3m,0.1,1.16.2,mp-7143,-9.619879698,-3.4145038172499995,,,['icsd-43768']
20.0,3.0,BaPuO3,338.38736500399904,8.427161774996334,Orthorhombic,Pnma,62.0,mmm,0.1,1.16.2,mp-505025,-9.644219982,-3.4388441012499995,,,['icsd-65033']
5.0,2.0,La2O3,112.22838107262248,4.820695086702337,Hexagonal,P-62m,189.0,-6m2,0.1,1.16.2,mp-553347,-8.576910994,-3.6344949252500007,,,
5.0,2.0,La2O3,115.60663530993467,4.679824854126312,Hexagonal,P6/mmm,191.0,6/mmm,0.1,1.16.2,mp-1180635,-8.583452316,-3.6410362472500006,23.276901148780833,3.6853434969856047,
5.0,2.0,La2O3,95.59438054291242,5.659525195442684,Cubic,Pm-3m,221.0,m-3m,0.1,1.16.2,mp-33032,-7.92664745,-2.9842313812500003,,,
15.0,2.0,La2O3,254.44993665426975,6.378686656469288,Monoclinic,C2/m,12.0,2/m,0.1,1.16.2,mp-557691,-8.787718751333333,-3.8453026825833336,,,['icsd-160220']
40.0,2.0,La2O3,733.0476769430752,5.904323249276039,Cubic,Ia-3,206.0,m-3,0.1,1.16.2,mp-2292,-8.81732254125,-3.8749064725,,,"['icsd-641600', 'icsd-184531', 'icsd-641602', 'icsd-96201']"
5.0,2.0,La2O3,81.78386608522705,6.615226585908185,Trigonal,P-3m1,164.0,-3m,0.1,1.16.2,mp-1968,-8.792923464000001,-3.8505073952500006,,,"['icsd-641603', 'icsd-641599', 'icsd-96196', 'icsd-100205', 'icsd-56166', 'icsd-154586', 'icsd-100204', 'icsd-160205', 'icsd-56771', 'icsd-184524', 'icsd-192270', 'icsd-151763', 'icsd-24693']"
20.0,2.0,La2S3,504.1879526114183,4.927142517339004,Orthorhombic,Pnma,62.0,mmm,0.1,1.16.2,mp-7475,-6.95063766,-2.4943648978749997,,,"['icsd-641807', 'icsd-15151', 'icsd-166513']"
40.0,2.0,La2S3,1008.8721156466869,4.924719118536538,Tetragonal,I-42d,122.0,-42m,0.1,1.16.2,mp-32906,-6.933879245750001,-2.4776064836250007,,,
40.0,2.0,La2Se3,1131.0472000690804,6.045119341034584,Tetragonal,I-42d,122.0,-42m,0.1,1.16.2,mp-32798,-6.38525140775,-2.3133016791562504,,,
20.0,3.0,LaSmO3,327.22444687835076,6.845937155644013,Orthorhombic,Pna2_1,33.0,mm2,0.1,1.16.2,mp-778450,-8.7009754675,-3.8020435927499996,,,
20.0,3.0,LaDyO3,312.28393326480085,7.4316784470168145,Orthorhombic,Pna2_1,33.0,mm2,0.1,1.16.2,mp-756272,-8.779369334,-3.9027973182500006,,,
20.0,3.0,LaHoO3,312.48257074063946,7.4786134019316926,Monoclinic,P2_1/c,14.0,2/m,0.1,1.16.2,mp-770413,-8.746057896,-3.8743614742500005,,,
20.0,3.0,LaHoO3,306.5519644743991,7.623295924453871,Orthorhombic,Pnma,62.0,mmm,0.1,1.16.2,mp-756166,-8.792727639,-3.9210312172500004,,,"['icsd-196470', 'icsd-189420', 'icsd-196469', 'icsd-189422']"
40.0,3.0,LaHoS3,946.3289521611864,5.615525156412775,Monoclinic,P2_1/m,11.0,2/m,0.1,1.16.2,mp-1200097,-6.8313278955,-2.4457747803750003,,,['icsd-639367']
20.0,3.0,LaErO3,304.0796627333526,7.736143143279784,Orthorhombic,Pnma,62.0,mmm,0.1,1.16.2,mp-7538,-8.808138028,-3.9393796182500003,,,['icsd-16237']
60.0,3.0,LaErS3,1405.4097717016073,5.704815482612086,Orthorhombic,Pnma,62.0,mmm,0.1,1.16.2,mp-558977,-6.831274340333334,-2.448659237208334,,,['icsd-173035']
40.0,3.0,LaErS3,939.2266311609583,5.690925675100202,Monoclinic,P2_1/m,11.0,2/m,0.1,1.16.2,mp-1200571,-6.82799950725,-2.445384404125,,,['icsd-630728']
20.0,3.0,LaTmO3,300.1437927284731,7.874661617948814,Orthorhombic,Pnma,62.0,mmm,0.1,1.16.2,mp-13374,-8.8140954055,-3.9637136730833324,,,['icsd-419665']
60.0,3.0,LaTmS3,1395.2577486371704,5.770248868123916,Orthorhombic,Pnma,62.0,mmm,0.1,1.16.2,mp-556841,-6.812666385333333,-2.4484279595416676,,,['icsd-173036']
40.0,3.0,LaTmS3,933.3866457636792,5.750374710812791,Monoclinic,P2_1/m,11.0,2/m,0.1,1.16.2,mp-1199053,-6.83798674025,-2.4737483144583328,,,['icsd-641865']
20.0,3.0,LaYbO3,305.877922083713,7.8161970205459825,Orthorhombic,Pnma,62.0,mmm,0.1,1.16.2,mp-1189511,-7.5339866865000005,-3.2708503827500004,,,"['icsd-189421', 'icsd-189419']"
20.0,3.0,LaYbO3,307.5601181624458,7.77344643228011,Orthorhombic,Pna2_1,33.0,mm2,0.1,1.16.2,mp-22530,-7.5352689755,-3.2721326717499997,,,"['icsd-30399', 'icsd-15093']"
60.0,3.0,LaYbS3,1444.3368193171443,5.6308184021721885,Orthorhombic,Pnma,62.0,mmm,0.1,1.16.2,mp-684002,-5.866023768333333,-2.0890307712083334,,,['icsd-173037']
20.0,3.0,LaYbS3,498.7561912329231,5.435386724083619,Orthorhombic,Pna2_1,33.0,mm2,0.1,1.16.2,mp-1188442,-5.8183699165,-2.0413769193749998,,,"['icsd-641881', 'icsd-641879']"
20.0,3.0,LaYbS3,499.02462393690814,5.432462949412862,Orthorhombic,Pnma,62.0,mmm,0.1,1.16.2,mp-21106,-5.8764924235,-2.099499426375,,,['icsd-35441']
10.0,3.0,LaYbS3,251.5739014041327,5.3879451828094265,Orthorhombic,Cmcm,63.0,mmm,0.1,1.16.2,mp-8215,-5.864602717,-2.087609719875,,,"['icsd-35440', 'icsd-99664']"
10.0,3.0,LaYbSe3,284.705131569081,6.402035176938683,Orthorhombic,Cmcm,63.0,mmm,0.1,1.16.2,mp-11784,-5.371474536,-1.97880457240625,,,['icsd-99665']
20.0,3.0,LaLuO3,287.5241780269563,8.359650151374474,Orthorhombic,Pnma,62.0,mmm,0.1,1.16.2,mp-22220,-8.848796715999999,-3.9893919642499993,,,['icsd-51449']
20.0,3.0,LaLuS3,484.78207567773165,5.618467249845161,Orthorhombic,Pnma,62.0,mmm,0.1,1.16.2,mp-1106374,-6.815472282,-2.442210836875,,,
20.0,3.0,LaTaN3,277.6707981069446,8.656365811415053,Monoclinic,P2_1/c,14.0,2/m,0.1,1.16.2,mp-989620,-9.7345906085,-1.3739367064999997,,,
5.0,3.0,LaTaO3,67.56898400289603,9.040122158092277,Cubic,Pm-3m,221.0,m-3m,0.1,1.16.2,mp-1239192,-9.458368586,-3.1315984122500007,,,
20.0,3.0,LaWN3,257.59197156705306,9.40568877905338,Orthorhombic,Pnma,62.0,mmm,0.1,1.16.2,mp-989630,-9.772490596499999,-1.191766174499999,,,
10.0,3.0,LaWN3,128.93932837601054,9.39523242077489,Trigonal,R-3c,167.0,-3m,0.1,1.16.2,mp-989455,-9.769006788999999,-1.1882823669999993,,,
10.0,3.0,LaWN3,131.99419891865733,9.177789389197171,Orthorhombic,Amm2,38.0,mm2,0.1,1.16.2,mp-989626,-9.788354515,-1.2076300930000001,,,
5.0,3.0,LaWN3,67.0115554856844,9.038851206267157,Tetragonal,P4mm,99.0,4mm,0.1,1.16.2,mp-989497,-9.78459777,-1.203873347999999,,,
10.0,3.0,LaWN3,170.60443604759888,7.100723675984881,Monoclinic,P2_1/m,11.0,2/m,0.1,1.16.2,mp-989646,-9.787013003,-1.2062885809999997,,,
5.0,3.0,LaWN3,61.81385242198857,9.798895480588964,Monoclinic,Cm,8.0,m,0.1,1.16.2,mp-989699,-7.3569718559999995,1.2237525660000004,,,
10.0,3.0,LaWN3,129.9967779367397,9.31880756968257,Trigonal,R3c,161.0,3m,0.1,1.16.2,mp-989524,-9.80309992,-1.2223754979999994,81.38569145000001,13.467063733333328,
20.0,3.0,LaWN3,332.33039367612616,7.2904253196403275,Monoclinic,C2/c,15.0,2/m,0.1,1.16.2,mp-989633,-9.7921998565,-1.2114754344999994,,,
5.0,3.0,LaWN3,66.29998165866549,9.135861941169184,Trigonal,R3m,160.0,3m,0.1,1.16.2,mp-989601,-9.779770772,-1.199046349999999,,,
10.0,3.0,LaReN3,123.46020168977046,9.875862290232625,Trigonal,R-3c,167.0,-3m,0.1,1.16.2,mp-989581,-9.437096227,-0.9590924139999984,,,
20.0,3.0,LaReN3,367.72951033262433,6.6313739634854985,Monoclinic,P2_1/c,14.0,2/m,0.1,1.16.2,mp-989614,-9.394924193,-0.9169203799999991,,,
5.0,3.0,LaReN3,61.85917806687415,9.855255018862316,Cubic,Pm-3m,221.0,m-3m,0.1,1.16.2,mp-989602,-9.429453882,-0.9514500689999992,,,
10.0,3.0,LaOsN3,134.4571527846699,9.167505201574674,Monoclinic,P2_1/m,11.0,2/m,0.1,1.16.2,mp-989641,-8.823106173,-0.5885343109999994,,,
20.0,3.0,LaOsN3,339.36841749559727,7.264297936966237,Monoclinic,P2_1/c,14.0,2/m,0.1,1.16.2,mp-989632,-8.82753778,-0.5929659180000002,,,
10.0,3.0,LaOsN3,140.01376512329904,8.803681884112583,Orthorhombic,Pmma,51.0,mmm,0.1,1.16.2,mp-989621,-8.8480047,-0.6134328379999999,,,
5.0,3.0,LaOsN3,61.655856812767205,9.996103462527321,Cubic,Pm-3m,221.0,m-3m,0.1,1.16.2,mp-989564,-8.794814943999999,-0.5602430819999995,,,
20.0,3.0,LaOsN3,246.28248460396372,10.009941628813205,Orthorhombic,Pnma,62.0,mmm,0.1,1.16.2,mp-989607,-8.8106647385,-0.5760928765000003,,,
10.0,3.0,LaOsN3,123.04124639492915,10.018076731651039,Trigonal,R-3c,167.0,-3m,0.1,1.16.2,mp-989588,-8.811200115999998,-0.5766282539999992,,,
5.0,3.0,LaPtO3,68.38135116569364,9.276000520339739,Cubic,Pm-3m,221.0,m-3m,0.1,1.16.2,mp-1185084,-7.186035962,-2.01659465025,,,
20.0,3.0,LaAuO3,302.0584155163614,8.441168934491103,Orthorhombic,Pbcm,57.0,mmm,0.1,1.16.2,mp-28853,-6.925627539500001,-2.31563649175,,,['icsd-73873']
10.0,3.0,LaTlO3,158.82202214022158,8.182080686051082,Hexagonal,P6_3mc,186.0,6mm,0.1,1.16.2,mp-29257,-6.761665069,-2.333921791916667,35.79983039442729,7.819903723333332,['icsd-200088']
10.0,3.0,LaBiO3,174.44004834340714,7.537041755290872,Trigonal,R3c,161.0,3m,0.1,1.16.2,mp-768310,-7.467816277999999,-2.7445038042499994,44.68943478670178,5.710602436666666,
10.0,3.0,LaBiO3,176.75022353888693,7.438530497077172,Trigonal,R-3,148.0,-3,0.1,1.16.2,mp-755003,-7.462360249,-2.7390477752499995,,,
15.0,2.0,Ce2O3,237.0621692253448,6.897419420217556,Monoclinic,C2/m,12.0,2/m,0.1,1.16.2,mp-561149,-9.070072411333333,-3.728823522583333,,,['icsd-160221']
40.0,2.0,Ce2O3,700.7557879941837,6.222299742945029,Cubic,Ia-3,206.0,m-3,0.1,1.16.2,mp-542313,-9.111807831250001,-3.7705589425,,,"['icsd-96202', 'icsd-184532', 'icsd-621711']"
5.0,2.0,Ce2O3,76.50928132038298,7.123829429995266,Trigonal,P-3m1,164.0,-3m,0.1,1.16.2,mp-2721,-9.067622244,-3.72637335525,,,"['icsd-621706', 'icsd-154587', 'icsd-621708', 'icsd-96197', 'icsd-184523', 'icsd-160206']"
5.0,2.0,Ce2O3,155.20007000376333,3.511848093397864,Trigonal,P321,150.0,32,0.1,1.16.2,mp-20169,-8.324968846,-2.98371995725,,,['icsd-26865']
5.0,2.0,Ce2O3,105.7571971794586,5.153683006680469,Hexagonal,P-62m,189.0,-6m2,0.1,1.16.2,mp-1182200,-8.910272194,-3.569023305249999,,,
40.0,2.0,Ce2S3,928.3916153168454,5.386276471354912,Tetragonal,I-42d,122.0,-42m,0.1,1.16.2,mp-32629,-7.149611896250001,-2.2945063141250004,,,
20.0,2.0,Ce2S3,485.0388733277749,5.154817674175432,Orthorhombic,Pnma,62.0,mmm,0.1,1.16.2,mp-20973,-7.183570604000001,-2.328465021875,,,"['icsd-622026', 'icsd-89499']"
40.0,2.0,Ce2Se3,1056.9652546808159,6.4992462070437025,Tetragonal,I-42d,122.0,-42m,0.1,1.16.2,mp-32578,-6.573068619749999,-2.1022860711562488,,,
20.0,3.0,CeDyS3,457.6605672097798,5.788055979804422,Orthorhombic,Pnma,62.0,mmm,0.1,1.16.2,mp-20775,-6.943926621,-2.354081501875,,,['icsd-200015']
60.0,3.0,CeErS3,1377.6275976004144,5.8373721804792655,Orthorhombic,Pnma,62.0,mmm,0.1,1.16.2,mp-638813,-6.922909272333333,-2.340877759208334,,,['icsd-173038']
40.0,3.0,CeErS3,907.2817040392706,5.909024710841127,Monoclinic,P2_1/m,11.0,2/m,0.1,1.16.2,mp-1202288,-6.926495631749999,-2.3444641186249995,,,['icsd-620977']
20.0,3.0,CeTmO3,293.9370669190826,8.068296247041621,Orthorhombic,Pnma,62.0,mmm,0.1,1.16.2,mp-1213788,-8.914985163999999,-3.8651870215833326,,,
60.0,3.0,CeTmS3,1359.6375821514046,5.939160655086273,Orthorhombic,Pnma,62.0,mmm,0.1,1.16.2,mp-683985,-6.90507355,-2.3414187142083334,,,['icsd-173039']
40.0,3.0,CeTmS3,911.783348536846,5.904257881764353,Monoclinic,P2_1/m,11.0,2/m,0.1,1.16.2,mp-541836,-6.93654972675,-2.372894890958334,,,"['icsd-622061', 'icsd-42429']"
20.0,3.0,YbCeO3,288.34997582035675,8.31920524994657,Orthorhombic,Pnma,62.0,mmm,0.1,1.16.2,mp-1207625,-8.150333833000001,-3.6877811192500003,,,
10.0,3.0,YbCeS3,235.9486746170199,5.761789749869135,Orthorhombic,Cmcm,63.0,mmm,0.1,1.16.2,mp-1079021,-6.168615331,-2.192205923875,,,['icsd-622073']
60.0,3.0,YbCeS3,1352.3179206530738,6.031806430164073,Orthorhombic,Pnma,62.0,mmm,0.1,1.16.2,mp-684004,-6.136936223999999,-2.1605268168749996,,,['icsd-173040']
10.0,3.0,YbCeSe3,270.4801117518834,6.753592788176876,Orthorhombic,Cmcm,63.0,mmm,0.1,1.16.2,mp-20764,-5.616220937,-2.0241345634062498,,,['icsd-99666']
20.0,3.0,CeLuO3,288.41203700202817,8.36179409451996,Orthorhombic,Pnma,62.0,mmm,0.1,1.16.2,mp-1213810,-8.9494973105,-3.89067614875,,,
10.0,3.0,CeLuS3,230.3592996435985,5.929373698302901,Orthorhombic,Cmcm,63.0,mmm,0.1,1.16.2,mp-1092225,-6.921287421,-2.3486095658749995,,,['icsd-621478']
10.0,3.0,CeLuS3,239.69013903796815,5.698550545084652,Orthorhombic,Cmcm,63.0,mmm,0.1,1.16.2,mp-1205797,-6.78681457,-2.214136714875,,,
5.0,3.0,CeTaO3,66.66087960201669,9.193428072048935,Cubic,Pm-3m,221.0,m-3m,0.1,1.16.2,mp-1183701,-9.5829654,-3.056778816250001,,,
20.0,3.0,CePbO3,361.1342055144163,7.270811378796641,Orthorhombic,Cmcm,63.0,mmm,0.1,1.16.2,mp-1214439,-7.465946467499999,-2.5687859957499994,,,
5.0,3.0,CePuO3,83.18430470359806,8.625936261526137,Cubic,Pm-3m,221.0,m-3m,0.1,1.16.2,mp-1183759,-10.091614706,-3.08341598225,,,
40.0,2.0,Pr2O3,710.2027717486561,6.169147440454104,Cubic,Ia-3,206.0,m-3,0.1,1.16.2,mp-16705,-8.61623555575,-3.735860027000001,,,"['icsd-647301', 'icsd-184533', 'icsd-96203', 'icsd-647290']"
15.0,2.0,Pr2O3,243.08257777008146,6.759038921663342,Monoclinic,C2/m,12.0,2/m,0.1,1.16.2,mp-555159,-8.589947187333333,-3.7095716585833336,,,['icsd-160222']
5.0,2.0,Pr2O3,79.37787574754137,6.899506900183612,Trigonal,P-3m1,164.0,-3m,0.1,1.16.2,mp-2063,-8.590696116,-3.71032058725,,,"['icsd-647302', 'icsd-75481', 'icsd-600743', 'icsd-184525', 'icsd-96198', 'icsd-154588', 'icsd-61179', 'icsd-647291', 'icsd-160207']"