material_id,formula_pretty,icsd,crystal_system,symbol,number,point_group,nsites,nelements,volume,density,energy_per_atom,formation_energy_per_atom
mp-19845,TiPbO3,"['icsd-162043', 'icsd-187295', 'icsd-1613', 'icsd-187505', 'icsd-262090', 'icsd-153406', 'icsd-162047']",Cubic,Pm-3m,221.0,m-3m,5.0,3.0,62.52581792285580,8.048700857425850,-7.9797724600000000,-2.690131415916670
mp-1106215,TiPbO3,"['icsd-182928', 'icsd-182929', 'icsd-182930']",Tetragonal,I4/m,87.0,4/m,20.0,3.0,294.1999112684280,6.8423080368338500,-8.017888695,-2.728247650916670
mp-989613,TiPN3,,Orthorhombic,Amm2,38.0,mm2,5.0,3.0,65.01044611865270,3.0871066875569200,-8.671423264,-1.0077674043333300
mp-989624,TiPN3,,Monoclinic,C2/c,15.0,2/m,20.0,3.0,196.48484372343000,4.085692904770750,-8.6854144385,-1.0217585788333300
mp-996940,TiReN3,,Trigonal,R3c,161.0,3m,10.0,3.0,106.7880800793470,8.586445954775320,-9.801000126,-0.731099330666666
mp-1018639,TiSnO3,['icsd-186724'],Cubic,Pm-3m,221.0,m-3m,5.0,3.0,61.66409761506850,5.778248869345960,-7.946378162,-2.5973521609166700
mp-754246,TiSnO3,,Trigonal,R-3,148.0,-3,10.0,3.0,156.7978330522060,4.544839624216930,-8.104400851,-2.7553748499166700
mp-755657,TiVO3,,Trigonal,R-3,148.0,-3,10.0,3.0,104.65784905784900,4.658575783530180,-9.36486496,-3.0009721159166700
mp-1216763,TiVO3,,Trigonal,R3c,161.0,3m,10.0,3.0,103.87320059980800,4.6937662299986100,-9.345430298,-2.9815374539166700
mp-753428,TiVO3,,Triclinic,P1,1.0,1,20.0,3.0,216.74951415159700,4.498801513679510,-9.3057165345,-2.941823690416670
mp-1246544,TiWN3,,Triclinic,P-1,2.0,-1,20.0,3.0,331.8174909783120,5.479331927886030,-9.954746987500000,-0.7821255831666660
mp-1016927,TiZnO3,,Cubic,Pm-3m,221.0,m-3m,5.0,3.0,56.759817119617200,4.71816371378167,-7.083898968,-2.2848386159166700
mp-635713,TiZnO3,,Triclinic,P-1,2.0,-1,10.0,3.0,148.20580247472700,3.613922060579640,-7.525225239000000,-2.726164886916670
mp-1343137,TiZnO3,,Orthorhombic,Pnma,62.0,mmm,20.0,3.0,205.80190054063300,5.205046383559260,-7.516832013,-2.7177716609166700
mp-14142,TiZnO3,"['icsd-262709', 'icsd-22382']",Trigonal,R-3,148.0,-3,10.0,3.0,106.96230133551400,5.0074111381473000,-7.592381316000000,-2.793320963916670
mp-1078470,TiZnO3,['icsd-194214'],Trigonal,R3c,161.0,3m,10.0,3.0,106.48434781971200,5.029886833472970,-7.565642529,-2.7665821769166700
mp-998154,TlAgBr3,,Monoclinic,Cm,8.0,m,5.0,3.0,158.15388901605100,5.795348826320990,-2.838739506,-0.8678826780000000
mp-998608,TlAgBr3,,Trigonal,R3c,161.0,3m,10.0,3.0,316.11502618708100,5.798882553244010,-2.845584166,-0.8747273380000000
mp-998748,TlAgCl3,,Trigonal,R3c,161.0,3m,10.0,3.0,269.8364452252640,5.152151247461500,-3.162428853,-1.014267027
mp-1400626,TlAgF3,,Trigonal,R3m,160.0,3m,5.0,3.0,86.82902291658910,7.061562665438680,-3.89810869,-1.7121814795000000
mp-1187494,TlBO3,,Cubic,Pm-3m,221.0,m-3m,5.0,3.0,44.17078148014980,9.894355808092860,-5.618110908,-0.8416906977500000
mp-29798,TlBrO3,['icsd-76966'],Trigonal,R3m,160,3m,5,3,87.9711588745669,6.2722039936004,-4.412738808,-0.661591285916667
mp-1179184,TlBrO3,,Monoclinic,Cm,8,m,5,3,97.8432346897586,5.63935826288119,-3.930654824,-0.179507301916666
mp-28809,TlBS3,['icsd-73085'],Monoclinic,P2_1/c,14.0,2/m,20.0,3.0,459.40353654985600,4.502134236531830,-4.9664970925,-0.6762201888750000
mp-29959,TlBSe3,['icsd-411344'],Monoclinic,Cc,9.0,m,10.0,3.0,250.6334832317470,5.99031722718172,-4.420649939,-0.5146960689062500
mp-28219,TlCdBr3,['icsd-39808'],Orthorhombic,Pnma,62.0,mmm,20.0,3.0,612.3731169494530,6.036192160507900,-2.8421225505,-1.2531989711666700
mp-28218,TlCdCl3,['icsd-39807'],Orthorhombic,Pnma,62.0,mmm,20.0,3.0,535.2233003348430,5.251360210746540,-3.2097191885000000,-1.4434906111666700
mp-1412222,TlCdF3,,Trigonal,R3m,160.0,3m,5.0,3.0,86.27465927655060,7.194373047437350,-4.094563176000000,-2.2905692141666700
mp-998623,TlCdF3,,Monoclinic,Cm,8.0,m,5.0,3.0,86.5262629373115,7.173453033858040,-4.09466794,-2.2906739781666700
mp-998759,TlCdF3,,Orthorhombic,Pbam,55.0,mmm,40.0,3.0,678.6302714587920,7.316998483333880,-4.1034652522500000,-2.2994712904166700
mp-27252,TlCdI3,['icsd-8009'],Orthorhombic,Pnma,62.0,mmm,20.0,3.0,777.8845487563910,5.955839094947380,-2.4072553725000000,-0.866128981166667
mp-1207995,TlCdN3,,Cubic,Pm-3m,221.0,m-3m,5.0,3.0,89.45916280761850,6.6603052181469500,-3.7670958620000000,1.8919076743333300
mp-29738,TlClO3,['icsd-76434'],Trigonal,R3m,160,3m,5,3,94.2329605264689,5.07211520570899,-4.532848862,-0.722599673916667
mp-567430,TlCoCl3,['icsd-155190'],Hexagonal,P6_3cm,185.0,6mm,30.0,3.0,729.6611636242840,5.047772571831280,-4.0097369086666700,-1.0064227243333300
mp-569753,TlCoCl3,['icsd-155189'],Hexagonal,P6_3/mmc,194.0,6/mmm,10.0,3.0,243.6142718966970,5.039611157695190,-4.124859668,-1.1215454836666700
mp-567620,TlCoCl3,['icsd-155191'],Orthorhombic,Pbca,61.0,mmm,40.0,3.0,978.5949496811730,5.018301814144360,-4.1272699800000000,-1.1239557956666700
mp-2353285,TlCoCl3,,Monoclinic,C2/m,12.0,2/m,10.0,3.0,254.2104701563660,4.829546171206910,-4.130708261,-1.1273940766666700
mp-998160,TlCoF3,,Cubic,Pm-3m,221.0,m-3m,5.0,3.0,74.10504154645180,7.177515697688810,-5.042304014000000,-2.0012244451666700
mp-755788,TlCoO3,,Trigonal,R-3,148.0,-3,10.0,3.0,116.90235340971300,8.84413697374225,-5.967864613000000,-1.1056591979166700
mp-756464,TlCoO3,,Orthorhombic,Pnma,62.0,mmm,20.0,3.0,232.6166094308970,8.88930870962134,-5.9446741835,-1.0824687684166700
mp-770614,TlCoO3,,Triclinic,P-1,2.0,-1,20.0,3.0,228.34288850076100,9.055683169260450,-5.9334327370000000,-1.0712273219166700
mp-1105306,TlCrO3,['icsd-238834'],Orthorhombic,Pnma,62.0,mmm,20.0,3.0,233.87374183496300,8.644508645260620,-7.067328762,-1.6961774119166700
mp-1105457,TlCuCl3,['icsd-239557'],Monoclinic,P2_1/c,14.0,2/m,20.0,3.0,500.54527904298500,4.966746229309070,-3.4822783455,-1.080786386166670
mp-998147,TlCuCl3,,Cubic,Pm-3m,221.0,m-3m,5.0,3.0,111.9896865839660,5.54979983674929,-3.4648696480000000,-1.0633776886666700
mp-554973,TlCuF3,,Cubic,Pm-3m,221.0,m-3m,5.0,3.0,68.20646083666090,7.910538609806290,-4.342521356,-1.9032640121666700
mp-1187483,TlCuO3,,Cubic,Pm-3m,221.0,m-3m,5.0,3.0,56.751354716769100,9.244007629094680,-4.9195667060000000,-0.6591835159166660
mp-504821,TlFeBr3,['icsd-36217'],Orthorhombic,Pnma,62.0,mmm,20.0,3.0,577.9433921229840,5.745686587527010,-4.0713082775,-0.9729584081666670
mp-568553,TlFeBr3,['icsd-35225'],Hexagonal,P6_3cm,185.0,6mm,30.0,3.0,843.1851984228680,5.907388322308160,-3.998106716,-0.8997568466666660
mp-998159,TlFeF3,,Cubic,Pm-3m,221.0,m-3m,5.0,3.0,77.00625173301600,6.8405099414664000,-5.384095290000000,-2.0706750381666700
mp-23415,TlFeI3,"['icsd-26422', 'icsd-26423']",Orthorhombic,Pnma,62.0,mmm,20.0,3.0,635.3074683484210,6.701062410837010,-3.493837328,-0.4432846466666670
mp-505819,TlFeO3,['icsd-93835'],Orthorhombic,Pnma,62.0,mmm,20.0,3.0,237.57148540071800,8.617568623575880,-6.4935586285,-1.3590125304166700
mp-1187481,TlGaO3,,Cubic,Pm-3m,221.0,m-3m,5.0,3.0,59.724888506857400,8.955514512450670,-5.303302328,-1.2571412674166700
mp-756909,TlGaO3,,Orthorhombic,Pnma,62.0,mmm,20.0,3.0,231.7348619025550,9.232397773668990,-5.663815099,-1.617654038416670
mp-998746,TlGeBr3,,Orthorhombic,Pnma,62.0,mmm,20.0,3.0,617.8031051932750,5.555550922476080,-3.40783439,-1.0788831916666700
mp-998153,TlGeBr3,,Monoclinic,Cm,8.0,m,5.0,3.0,171.58750587347900,5.000708812528360,-3.3798346520000000,-1.0508834536666700
mp-998744,TlGeCl3,,Monoclinic,Cm,8.0,m,5.0,3.0,151.03928858108300,4.214938328785890,-3.7593213800000000,-1.2530651836666700
mp-998712,TlGeF3,,Triclinic,P1,1.0,1,5.0,3.0,105.97098872632000,5.233987064051520,-4.8250328840000000,-2.281011303166670
mp-998711,TlGeF3,,Monoclinic,P2_1/m,11.0,2/m,10.0,3.0,192.73509778140400,5.755576338123740,-4.853020763,-2.3089991821666700
mp-29288,TlGeI3,['icsd-201144'],Orthorhombic,Pnma,62.0,mmm,20.0,3.0,768.288708546055,5.686391015996470,-2.999773986,-0.7186199756666660
mp-1187533,TlGeO3,,Cubic,Pm-3m,221.0,m-3m,5.0,3.0,57.634793859463900,9.364324257859890,-5.733962968,-1.368815540916670
mp-998732,TlInCl3,,Monoclinic,Cm,8.0,m,5.0,3.0,158.854574053747,4.4484680882083,-3.4493341480000000,-1.3173467766666700
mp-546200,TlIO3,['icsd-76967'],Cubic,Pm-3m,221,m-3m,5,3,76.7475819762978,8.20637151529783,-4.47276803,-0.737552903916667
mp-22981,TlIO3,['icsd-62106'],Trigonal,R3m,160,3m,5,3,91.3199505189197,6.89684090956433,-4.716762884,-0.981547757916667
mp-1205652,TlNiCl3,,Hexagonal,P6_3/mmc,194.0,6/mmm,10.0,3.0,238.9284548899520,5.135113879418600,-3.8872893240000000,-1.1496113626666700
mp-998761,TlNiF3,,Cubic,Pm-3m,221.0,m-3m,5.0,3.0,68.28540381625540,7.783389718866120,-4.957876744,-2.182433398166670
mp-1178989,TlNiO3,['icsd-95948'],Monoclinic,P2_1/c,14.0,2/m,20.0,3.0,223.64114407224000,9.238944403214670,-5.5623652445,-0.9657960524166660
mp-998781,TlNiO3,,Monoclinic,Pm,6.0,m,5.0,3.0,57.6729815206356,8.956568751415500,-5.33315619,-0.7365869979166670
mp-1403003,TlNiO3,,Orthorhombic,Amm2,38.0,mm2,5.0,3.0,54.434170789211300,9.489480901416940,-5.271887158,-0.6753179659166660
mp-998845,TlNiO3,,Trigonal,R3c,161.0,3m,10.0,3.0,109.31815844005000,9.450434062552640,-5.535411979,-0.9388427869166660
mp-1097917,TlNiO3,,Monoclinic,Cm,8.0,m,5.0,3.0,54.43417050466770,9.489480951021270,-5.27181955,-0.6752503579166660
mp-18001,TlNiO3,['icsd-93507'],Orthorhombic,Pnma,62.0,mmm,20.0,3.0,225.19137756897200,9.175342851312840,-5.563698480500000,-0.9671292884166660
mp-676598,TlPbCl3,,Orthorhombic,Fmm2,42.0,mm2,40.0,3.0,1153.259999340160,5.966137203314030,-3.76610718525,-1.4419271459166700
mp-27552,TlPbI3,"['icsd-239288', 'icsd-1199']",Orthorhombic,Cmcm,63.0,mmm,10.0,3.0,435.6215032572200,6.0402878620838400,-3.019440088,-0.9203622346666670
mp-998786,TlPdF3,,Cubic,Pm-3m,221.0,m-3m,5.0,3.0,77.94145138407870,7.835930470661130,-4.351736202,-1.6963438301666700
mp-27144,TlPO3,['icsd-2139'],Tetragonal,P-42_1c,114.0,-42m,40.0,3.0,638.7158327617260,5.89335611416675,-6.7838944375,-2.260692080083330
mp-556932,TlPO3,['icsd-157104'],Orthorhombic,Pbcn,60.0,mmm,120.0,3.0,2032.6740776389700,5.55550921758248,-6.771446867750000,-2.2482445103333300
mp-8249,TlPS3,"['icsd-658902', 'icsd-38255']",Orthorhombic,Immm,71.0,mmm,10.0,3.0,255.24432221846400,4.313946314477190,-4.665118756,-0.6280597052083340
mp-557787,TlSbO3,,Trigonal,P-31c,163.0,-3m,20.0,3.0,362.4069017248390,6.857226771669320,-5.981538722,-1.7151966179166700
mp-1179620,TlSbO3,,Triclinic,P-1,2.0,-1,10.0,3.0,260.24884551350800,4.774480946960250,-5.222655056,-0.9563129519166670
mp-561465,TlSbO3,['icsd-10142'],Hexagonal,P6_322,182.0,622,20.0,3.0,410.6713564027070,6.051326127328890,-5.8467713965,-1.5804292924166700
mp-30058,TlSbO3,['icsd-77329'],Trigonal,R-3,148.0,-3,10.0,3.0,178.47189652307500,6.962178239709540,-5.981317045,-1.7149749409166700
mp-1187529,TlSiO3,,Cubic,Pm-3m,221.0,m-3m,5.0,3.0,50.85047420789470,9.158742718662720,-6.38847278,-1.8628673179166700
mp-676130,TlSnF3,,Monoclinic,Cc,9.0,m,40.0,3.0,793.48417092851,6.363346285464170,-4.77855820975,-2.3572278289166700
mp-1205533,TlSnI3,,Orthorhombic,Cmcm,63.0,mmm,10.0,3.0,410.1888338873860,5.698343985692580,-2.996075997,-0.8376131866666670
mp-1187623,TlTcO3,,Cubic,Pm-3m,221.0,m-3m,5.0,3.0,63.556834845711700,9.154360351271720,-7.0171885860000000,-1.5045189409166700
mp-1206817,TlVCl3,,Hexagonal,P6_3/mmc,194.0,6/mmm,10.0,3.0,255.39464681426700,4.70323154496746,-4.865086014,-1.4666541746666700
mp-22330,TlVO3,['icsd-6108'],Orthorhombic,Pbcm,57.0,mmm,20.0,3.0,331.92892040229900,6.069729515437830,-7.2685180305,-2.011194960416670
mp-1187621,TlWO3,,Cubic,Pm-3m,221.0,m-3m,5.0,3.0,67.77767792105600,10.687336371785300,-7.677042440000000,-1.6448745379166700
mp-998745,TlZnF3,,Cubic,Pm-3m,221.0,m-3m,5.0,3.0,69.88057354988400,7.765297257904710,-4.242491584,-2.3711268521666700
mp-1101265,TmAlO3,,Hexagonal,P6_3/mmc,194.0,6/mmm,10.0,3.0,116.83322033894900,6.9334499102895500,-8.33311484,-3.7208193625833300
mp-756281,TmAlO3,,Orthorhombic,Pnma,62.0,mmm,20.0,3.0,197.8539217161670,8.188437955149600,-8.390336423500000,-3.7780409460833300
mp-972395,TmBeO3,,Cubic,Pm-3m,221.0,m-3m,5.0,3.0,44.23705371244030,8.481347431994260,-7.497920196,-2.886857311583330
mp-754323,TmBiO3,,Trigonal,R3c,161.0,3m,10.0,3.0,155.422468802458,9.10093457425762,-7.4791634800000000,-2.847885342583330
mp-755216,TmBiO3,,Trigonal,R-3,148.0,-3,10.0,3.0,154.18326625164300,9.174080653033890,-7.455337051000000,-2.8240589135833300
mp-760484,TmBO3,,Orthorhombic,Ama2,40.0,mm2,10.0,3.0,116.35561242130800,6.500362493841260,-8.69007493,-3.491016264416670
mp-17620,TmBO3,['icsd-27942'],Hexagonal,P6_3/mcm,193.0,6/mmm,30.0,3.0,324.08721585354900,7.001389952448990,-8.401931864,-3.2028731984166700
mp-561954,TmCoO3,['icsd-172050'],Orthorhombic,Pnma,62.0,mmm,20.0,3.0,215.82653245179600,8.48988507631344,-7.929291278000000,-2.644447407583330
mp-777295,TmCrO3,"['icsd-247738', 'icsd-251103', 'icsd-251104']",Orthorhombic,Pnma,62.0,mmm,20.0,3.0,213.01460640525100,8.385646496521580,-9.0432949065,-3.249505101083330
mp-1187577,TmCrO3,,Cubic,Pm-3m,221.0,m-3m,5.0,3.0,56.34323775911640,7.925818869102430,-8.644344738000000,-2.8505549325833300
mp-558400,TmFeO3,['icsd-55404'],Hexagonal,P6_3cm,185.0,6mm,30.0,3.0,363.35092316188000,7.479670757668570,-8.448114512666670,-2.8909299592500000
mp-20651,TmFeO3,"['icsd-189734', 'icsd-98319', 'icsd-25658', 'icsd-27283']",Orthorhombic,Pnma,62.0,mmm,20.0,3.0,227.02195562690400,7.980858847597480,-8.433557634,-2.8763730805833300
mp-754578,TmGaO3,,Orthorhombic,Pnma,62.0,mmm,20.0,3.0,221.87658881589500,8.581392196401770,-7.6298202355,-3.161020719583330
mp-1101269,TmGaO3,,Hexagonal,P6_3/mmc,194.0,6/mmm,10.0,3.0,123.77303604118900,7.691538030930060,-7.652406986,-3.183607470083330
mp-768469,TmGaO3,,Hexagonal,P6_3cm,185.0,6mm,30.0,3.0,356.1908917194660,8.01821469368966,-7.674284366666670,-3.2054848507500000
mp-1187655,TmGeO3,,Cubic,Pm-3m,221.0,m-3m,5.0,3.0,58.73100332958050,8.187265194775400,-7.0961929580000000,-2.3084070755833300
mp-1101263,TmInO3,,Orthorhombic,Pnma,62.0,mmm,20.0,3.0,261.98237593932000,8.411016415747940,-7.372834516,-2.959317458583330
mp-1232191,TmMgS3,,Monoclinic,C2/m,12.0,2/m,20.0,3.0,508.5283680800950,3.7804523254428100,-5.2532537855,-1.5561607707083300
mp-1232251,TmMgS3,,Trigonal,R-3,148.0,-3,30.0,3.0,679.5347604872390,4.243639980131970,-5.343182042333330,-1.6460890275416700
mp-1238772,TmMgS3,,Monoclinic,C2/m,12.0,2/m,10.0,3.0,250.64586918426200,3.835026800798250,-5.217558768,-1.5204657532083300
mp-1232151,TmMgSe3,,Monoclinic,C2/m,12.0,2/m,10.0,3.0,284.98460758459600,5.012409319602380,-4.70163947,-1.388869488739580
mp-1232198,TmMgSe3,,Trigonal,R-3,148.0,-3,30.0,3.0,781.9479858337600,5.480388192868670,-4.820539726000000,-1.5077697447395800
mp-554270,TmMnO3,"['icsd-162209', 'icsd-183142']",Orthorhombic,Pnma,62.0,mmm,20.0,3.0,228.35721964620000,7.907812370132420,-8.7547630775,-3.0591797076695400
mp-554211,TmMnO3,['icsd-162202'],Hexagonal,P6_3cm,185.0,6mm,30.0,3.0,360.18969890841300,7.520229139533670,-8.795841926000000,-3.1002585561695400
mp-1106304,TmNiO3,"['icsd-189289', 'icsd-92049', 'icsd-189291']",Monoclinic,P2_1/c,14.0,2/m,20.0,3.0,211.52687155397000,8.65492732731107,-7.548522843000000,-2.529315195583330
mp-19002,TmNiO3,"['icsd-189295', 'icsd-189290', 'icsd-189296']",Orthorhombic,Pnma,62.0,mmm,20.0,3.0,203.77587181393100,8.98413381710249,-7.54801587,-2.5288082225833300
mp-1207705,TmRhO3,,Orthorhombic,Pnma,62.0,mmm,20.0,3.0,221.62220557287300,9.585742424353930,-7.946072353,-2.610030467583330
mp-1187557,TmScO3,,Cubic,Pm-3m,221.0,m-3m,5.0,3.0,64.08062583322520,6.7863848723812100,-8.53251846,-3.4028443275833300
mp-1207696,TmScO3,,Orthorhombic,Pnma,62.0,mmm,20.0,3.0,245.33436393081800,7.090336352390520,-9.1118436155,-3.982169483083330
mp-768396,TmSeO3,,Monoclinic,P2_1/c,14,2/m,40,3,616.797159580459,6.37280374831338,-7.107140161,-2.54477755405208
mp-755525,TmTiO3,,Orthorhombic,Pnma,62.0,mmm,20.0,3.0,229.46195942722000,7.665057270760330,-9.096499389,-3.65422067425
mp-1101279,TmTlO3,,Orthorhombic,Pnma,62.0,mmm,20.0,3.0,284.70342348098500,9.829333097205170,-6.8463349855,-2.5106260447500000
mp-755258,TmVO3,['icsd-185839'],Orthorhombic,Pnma,62.0,mmm,20.0,3.0,218.70381555294200,8.135479325832180,-9.002079601000000,-3.3221180755833300
mp-972367,UAlO3,,Cubic,Pm-3m,221.0,m-3m,5.0,3.0,53.437919809877700,9.726484321118650,-9.212781082,-3.2373706872500000
mp-1187752,UBeO3,,Cubic,Pm-3m,221.0,m-3m,5.0,3.0,45.87033247113280,10.680634827670500,-9.027323898,-3.0531460962500000
mp-1187784,UBO3,,Cubic,Pm-3m,221.0,m-3m,5.0,3.0,46.18361720936250,10.672859942438300,-8.784558708,-2.2223851250833300
mp-1105902,UCoS3,,Orthorhombic,Pnma,62.0,mmm,20.0,3.0,339.59898733144900,7.689689975743920,-7.423551773,-1.2617362918750000
mp-1188226,UCoSe3,['icsd-625010'],Orthorhombic,Pnma,62.0,mmm,20.0,3.0,398.2120878761390,8.904457677077930,-6.811330917500000,-1.0338384699062500
mp-22063,UCrS3,"['icsd-66866', 'icsd-626654']",Orthorhombic,Pnma,62.0,mmm,20.0,3.0,394.1513610207950,6.508498798498950,-8.052770542500000,-1.382009126375
mp-1106185,UCrSe3,"['icsd-601732', 'icsd-626741']",Orthorhombic,Pnma,62.0,mmm,20.0,3.0,454.95283457964900,7.692633495080120,-7.430784921,-1.14434653840625
mp-22667,UFeS3,"['icsd-261039', 'icsd-261038', 'icsd-98', 'icsd-261040']",Orthorhombic,Cmcm,63.0,mmm,10.0,3.0,167.01026619328400,7.756704764142550,-7.676297755,-1.2421415908750000
mp-1079562,UFeSe3,"['icsd-261037', 'icsd-601613']",Orthorhombic,Cmcm,63.0,mmm,10.0,3.0,213.55801301175300,8.253847185375300,-7.019360324000000,-0.9695271934062490
mp-1187781,UIrO3,,Cubic,Pm-3m,221.0,m-3m,5.0,3.0,64.44878895065210,12.322078365730300,-8.537287552000000,-1.5433054872500000
mp-19912,UMnSe3,"['icsd-99583', 'icsd-601605']",Orthorhombic,Cmcm,63.0,mmm,10.0,3.0,196.07941042901100,8.974237184531830,-7.237256277000000,-1.0490243299924600
mp-1189264,UNiS3,['icsd-248408'],Orthorhombic,Pnma,62.0,mmm,20.0,3.0,349.6838739129460,7.463364391356660,-7.177297923500000,-1.281118665375
mp-1188256,UNiSe3,['icsd-646553'],Orthorhombic,Pnma,62.0,mmm,20.0,3.0,408.48947071885200,8.676527012789040,-6.5712861800000000,-1.0594299554062500
mp-1187714,UPdO3,,Cubic,Pm-3m,221.0,m-3m,5.0,3.0,74.63127625787700,8.731912281353840,-8.711690712,-2.449419121250000
mp-21103,UPdSe3,['icsd-40434'],Orthorhombic,Pnma,62.0,mmm,20.0,3.0,453.3335669590280,8.517519424598360,-6.492053683500000,-1.100248432906250
mp-1187779,UReO3,,Cubic,Pm-3m,221.0,m-3m,5.0,3.0,63.10483032393260,12.42635760544450,-9.562426534,-1.8472258682500000
mp-21217,URhS3,['icsd-202438'],Orthorhombic,Pnma,62.0,mmm,20.0,3.0,365.33815036355800,7.947382026678310,-7.531425115,-1.3184116188750000
mp-1105660,URuS3,['icsd-650585'],Orthorhombic,Pnma,62.0,mmm,20.0,3.0,365.328437596662,7.914221490811960,-7.8994415915000000,-1.3044091613750000
mp-1187767,USiO3,,Cubic,Pm-3m,221.0,m-3m,5.0,3.0,54.68087788655940,9.538915254776810,-8.765367044,-2.45400820925
mp-1187783,UTcO3,,Cubic,Pm-3m,221.0,m-3m,5.0,3.0,62.43743604560290,10.21329604762660,-9.315465532000000,-2.017042514250000
mp-1187736,UTiO3,,Cubic,Pm-3m,221.0,m-3m,5.0,3.0,60.35636391639880,9.186176531949700,-9.912026782,-3.1066331499166700
mp-865322,UTlO3,,Cubic,Pm-3m,221.0,m-3m,5.0,3.0,80.91677642495130,10.063990194018800,-8.640130126000000,-2.9413062679166700
mp-1188711,UVS3,,Orthorhombic,Pnma,62.0,mmm,20.0,3.0,381.16053133197600,6.71194583734017,-8.075900941,-1.518967804875000
mp-1188372,UVSe3,"['icsd-652146', 'icsd-602308']",Orthorhombic,Pnma,62.0,mmm,20.0,3.0,454.38976770103500,7.6867501080450800,-7.424289673,-1.2516795704062500
mp-559736,VAgO3,['icsd-82079'],Monoclinic,Cm,8.0,m,20.0,3.0,248.92808517080500,5.51826198310841,-7.094997352,-1.7436917105833300
mp-1100926,VAgO3,,Triclinic,P-1,2.0,-1,40.0,3.0,609.6622395004400,4.5062669128125800,-7.0310032655,-1.679697624083330
mp-624691,VAgO3,['icsd-50645'],Monoclinic,C2/c,15.0,2/m,20.0,3.0,278.1337865832350,4.938811662548390,-7.0859557935,-1.7346501520833300
mp-1178815,VAgO3,,Monoclinic,C2/c,15.0,2/m,20.0,3.0,287.6306546239170,4.7757440552437000,-7.0974000565,-1.7460944150833300
mp-756282,VBiO3,,Orthorhombic,Pnma,62.0,mmm,20.0,3.0,238.85016311841900,8.56291406739171,-7.641337985000000,-2.0884457182500000