material_id,formula_pretty,icsd,crystal_system,symbol,number,point_group,nsites,nelements,volume,density,energy_per_atom,formation_energy_per_atom
mp-541814,RbCoF3,['icsd-410388'],Hexagonal,P6_3/mmc,194.0,6/mmm,30.0,3.0,461.0001393651110,4.352618193094320,-5.392403945,-2.627746191
mp-30027,RbCrCl3,['icsd-56837'],Monoclinic,C2/c,15.0,2/m,20.0,3.0,545.8501792217410,2.966949292635340,-4.9758304225,-1.739992118
mp-568864,RbCrCl3,['icsd-8184'],Monoclinic,C2,5.0,2,20.0,3.0,570.423405540088,2.839136310673360,-4.973847344,-1.7380090395000000
mp-568887,RbCrCl3,['icsd-2225'],Monoclinic,C2/m,12.0,2/m,10.0,3.0,277.2349363450800,2.9208256081964100,-4.967128819,-1.7312905145000000
mp-676553,RbCrI3,,Monoclinic,C2/m,12.0,2/m,10.0,3.0,396.6368627596620,4.338747844534470,-4.037549546,-1.0268134275
mp-27442,RbCrI3,['icsd-15504'],Monoclinic,C2,5.0,2,20.0,3.0,818.1720779552070,4.206712450178760,-4.0415208085000000,-1.0307846900000000
mp-1076360,RbCrO3,,Cubic,Pm-3m,221.0,m-3m,5.0,3.0,61.486287631130600,5.008711280005010,-6.653205036,-1.55847550075
mp-998196,RbCuBr3,,Cubic,Pm-3m,221.0,m-3m,5.0,3.0,136.14377431777600,4.741269884208400,-3.198902856,-1.2511377095
mp-23055,RbCuCl3,"['icsd-40944', 'icsd-15522']",Orthorhombic,Pbcn,60.0,mmm,20.0,3.0,518.1287961724030,3.2737536618669400,-3.5900330830000000,-1.4649629385000000
mp-1232302,RbCuCl3,,Tetragonal,I4/mcm,140.0,4/mmm,10.0,3.0,243.80084804014500,3.478712353594450,-3.6097855120000000,-1.4847153675000000
mp-568857,RbCuCl3,['icsd-56838'],Monoclinic,C2/c,15.0,2/m,20.0,3.0,536.5859699252210,3.1611449774292500,-3.5875147840000000,-1.4624446395000000
mp-571305,RbCuCl3,['icsd-15523'],Monoclinic,C2,5.0,2,20.0,3.0,538.9989995212920,3.1469929355984100,-3.5878744475,-1.4628043030000000
mp-569526,RbCuCl3,['icsd-84212'],Hexagonal,P6_3/mmc,194.0,6/mmm,10.0,3.0,257.94474002645900,3.2879640104584500,-3.559780761,-1.4347106165000000
mp-8858,RbCuF3,['icsd-69656'],Tetragonal,I4/mcm,140.0,4/mmm,10.0,3.0,141.6246984801060,4.8308806611218100,-4.501472442,-2.3386369130000000
mp-554601,RbCuF3,,Cubic,Pm-3m,221.0,m-3m,5.0,3.0,67.41884646593470,5.07404125766559,-4.491941972,-2.3291064430000000
mp-975364,RbCuO3,,Cubic,Pm-3m,221.0,m-3m,5.0,3.0,66.23687800780140,4.939032944011460,-4.643878798,-0.6599174227500000
mp-1219609,RbCuS3,,Orthorhombic,Pmm2,25.0,mm2,5.0,3.0,114.99286581277300,3.540904811756390,-3.916825926,-0.419007857375
mp-1209279,RbDyBr3,,Orthorhombic,Pnma,62.0,mmm,20.0,3.0,713.9981998680420,4.536769756794010,-3.9840355315000000,-1.934754351
mp-1209272,RbDyI3,,Orthorhombic,Pnma,62.0,mmm,20.0,3.0,860.5167772884140,4.852664060458940,-3.4674868895000000,-1.4660028970000000
mp-1206194,RbDyI3,,Orthorhombic,Cmcm,63.0,mmm,10.0,3.0,419.80303308955300,4.973521520125190,-3.4962963970000000,-1.4948124045000000
mp-975386,RbDyO3,,Cubic,Pm-3m,221.0,m-3m,5.0,3.0,92.29319774023980,5.325019800143490,-6.374110226,-2.28863281675
mp-975361,RbErO3,,Cubic,Pm-3m,221.0,m-3m,5.0,3.0,90.77570949035700,5.501092898164920,-6.397034038,-2.31937023475
mp-1206801,RbEuCl3,,Cubic,Pm-3m,221.0,m-3m,5.0,3.0,180.92054600924000,3.1554075351315400,-5.910670828,-2.5540416575
mp-1206560,RbFeCl3,,Hexagonal,P6_3/mmc,194.0,6/mmm,10.0,3.0,247.76650425325700,3.319808711307960,-4.515008522,-1.5157754695000000
mp-1206518,RbFeCl3,,Cubic,Pm-3m,221.0,m-3m,5.0,3.0,119.83206666721100,3.432042115548970,-4.547405426000000,-1.5481723735000000
mp-554465,RbFeF3,['icsd-49586'],Cubic,Pm-3m,221.0,m-3m,5.0,3.0,75.18858462943220,4.379630216254740,-5.528833986,-2.491835549
mp-975322,RbFeO3,,Cubic,Pm-3m,221.0,m-3m,5.0,3.0,66.20594225067890,4.74818876599991,-6.023394786,-1.1652705027500000
mp-975308,RbGdO3,,Cubic,Pm-3m,221.0,m-3m,5.0,3.0,89.4388218566224,5.397491439003580,-8.289154804,-2.3098103147500000
mp-1120721,RbGeBr3,,Monoclinic,P2_1/m,11.0,2/m,10.0,3.0,359.3295999849220,3.6768210545121700,-3.5127194430000000,-1.4601900595000000
mp-28558,RbGeBr3,['icsd-65244'],Orthorhombic,Pna2_1,33.0,mm2,20.0,3.0,712.8200349732960,3.7069402483433100,-3.5197074740000000,-1.4671780905000000
mp-1120729,RbGeCl3,,Orthorhombic,Pna2_1,33.0,mm2,20.0,3.0,632.4557199965220,2.7774747817672000,-3.913733276,-1.6838988945000000
mp-27369,RbGeCl3,['icsd-12149'],Monoclinic,P2_1/m,11.0,2/m,10.0,3.0,311.8706330814680,2.8162796149130900,-3.921218277,-1.6913838955000000
mp-571458,RbGeI3,['icsd-40216'],Cubic,Pm-3m,221.0,m-3m,5.0,3.0,206.9055618468490,4.3243577462647500,-3.0570703480000000,-1.0523381525000000
mp-567855,RbGeI3,['icsd-85041'],Orthorhombic,P2_12_12_1,19.0,222,20.0,3.0,816.7220152541120,4.382072002010620,-3.0653950510000000,-1.0606628555
mp-1186885,RbGeO3,,Cubic,Pm-3m,221.0,m-3m,5.0,3.0,61.565349989323500,5.559085831884510,-5.576472036,-1.48774642375
mp-975296,RbHoO3,,Cubic,Pm-3m,221.0,m-3m,5.0,3.0,90.98740980757070,5.445794618591800,-6.384995896,-2.30439408075
mp-998800,RbInBr3,,Trigonal,R3c,161.0,3m,10.0,3.0,374.0773742733570,3.9063230570269300,-3.219485888,-1.5412253295
mp-998194,RbInBr3,,Monoclinic,Cm,8.0,m,5.0,3.0,188.62325637145000,3.873507170713020,-3.2130211260000000,-1.5347605675000000
mp-1110737,RbInBr3,,Cubic,Fm-3m,225.0,m-3m,10.0,3.0,375.4711261547890,3.891822753991730,-3.229154639,-1.5508940805000000
mp-998753,RbInCl3,,Trigonal,R3c,161.0,3m,10.0,3.0,322.54165228910400,3.15739481307881,-3.5936251890000000,-1.7380596325000000
mp-998195,RbInCl3,,Monoclinic,Cm,8.0,m,5.0,3.0,162.10258258411500,3.1411940627505000,-3.5896225180000000,-1.7340569615000000
mp-1114001,RbInCl3,,Cubic,Fm-3m,225.0,m-3m,10.0,3.0,327.42314383910900,3.1103217933791200,-3.6260958870000000,-1.7705303305000000
mp-998204,RbInCl3,,Tetragonal,P4mm,99.0,4mm,5.0,3.0,162.1034722167250,3.14117682370784,-3.58963095,-1.7340653935000000
mp-1110662,RbInF3,,Cubic,Fm-3m,225.0,m-3m,10.0,3.0,197.67575458300100,4.3224842463490400,-4.627204056,-2.733873115
mp-1147705,RbInH3,,Cubic,Fm-3m,225.0,m-3m,10.0,3.0,173.25258370847800,3.8972413501626700,-2.8317216730000000,-0.049642485500000100
mp-1114161,RbInI3,,Cubic,Fm-3m,225.0,m-3m,10.0,3.0,478.74911602653700,4.030386077267490,-2.760979151,-1.1305157805000000
mp-975299,RbInO3,,Cubic,Pm-3m,221.0,m-3m,5.0,3.0,82.5887320345404,4.992028227764630,-4.96813082,-1.2536740327500000
mp-1179783,RbIO3,,Monoclinic,Cm,8,m,5,3,183.547452788802,2.35555073445498,-3.848607274,-0.38981396275
mp-27193,RbIO3,['icsd-2825'],Trigonal,R3m,160,3m,5,3,92.3005840532074,4.68421019930674,-4.842215484,-1.38342217275
mp-975284,RbIrO3,,Cubic,Pm-3m,221.0,m-3m,5.0,3.0,64.44276112195800,8.392088349597640,-6.137988264,-1.20618138675
mp-975291,RbLiO3,,Cubic,Pm-3m,221.0,m-3m,5.0,3.0,73.00276697776180,3.1937324895524700,-4.24320535,-0.6973007354166670
mp-662499,RbMgCl3,['icsd-15279'],Hexagonal,P6_3/mmc,194.0,6/mmm,30.0,3.0,767.7004620050820,2.804963512700360,-3.9042653253333300,-2.2789805048333300
mp-27208,RbMgCl3,['icsd-4036'],Hexagonal,P6_3/mmc,194.0,6/mmm,20.0,3.0,517.507435445248,2.774030074569230,-3.908508912,-2.2832240915
mp-559523,RbMgF3,,Hexagonal,P6_3/mmc,194.0,6/mmm,30.0,3.0,593.1969830874100,2.8010067774648600,-4.609099074666670,-2.946048869666670
mp-8402,RbMgF3,['icsd-49585'],Cubic,Pm-3m,221.0,m-3m,5.0,3.0,66.77191431471460,4.147324482786280,-5.1704084,-3.5073581950000000
mp-541813,RbMgF3,"['icsd-33689', 'icsd-410385']",Hexagonal,P6_3/mmc,194.0,6/mmm,30.0,3.0,416.3762264433630,3.9904986511653200,-5.172563004,-3.509512799
mp-23738,RbMgH3,"['icsd-88052', 'icsd-159176', 'icsd-159899']",Hexagonal,P6_3/mmc,194.0,6/mmm,30.0,3.0,428.6656151988670,2.6216685563204,-2.8848991706666700,-0.33310071916666700
mp-1186884,RbMgO3,,Cubic,Pm-3m,221.0,m-3m,5.0,3.0,73.81009484134070,3.5494455011838300,-4.88328735,-1.3991112987500000
mp-29763,RbMnBr3,"['icsd-9704', 'icsd-14077']",Hexagonal,P6_3/mmc,194.0,6/mmm,10.0,3.0,316.29598840839100,3.9912016254807300,-4.542519885,-1.5821930140862100
mp-568231,RbMnBr3,,Hexagonal,P6_3cm,185.0,6mm,30.0,3.0,955.5399878525550,3.963416745872710,-4.543790978666670,-1.5834641077528700
mp-569309,RbMnCl3,"['icsd-36125', 'icsd-817', 'icsd-54006']",Hexagonal,P6_3/mmc,194.0,6/mmm,30.0,3.0,789.3611759695850,3.1146401256637100,-4.961344522,-1.8237126530862100
mp-558749,RbMnF3,['icsd-43722'],Cubic,Pm-3m,221.0,m-3m,5.0,3.0,75.81974583115910,4.323308649455130,-6.190304176,-3.0149069225862100
mp-975346,RbMnO3,,Cubic,Pm-3m,221.0,m-3m,5.0,3.0,65.90328141913000,4.747142635255060,-6.375374634,-1.378851534336210
mp-975292,RbMoO3,,Cubic,Pm-3m,221.0,m-3m,5.0,3.0,66.57386524218770,5.722029564103490,-7.286910316000000,-1.9536602527500000
mp-975274,RbNaO3,,Cubic,Pm-3m,221.0,m-3m,5.0,3.0,92.81920017629030,2.7989997391806800,-3.9353986720000000,-0.5067735720603450
mp-1075911,RbNbO3,,Cubic,Pm-3m,221.0,m-3m,5.0,3.0,68.86332417595560,5.458641230108820,-7.941458902000000,-2.7570778527500000
mp-3283,RbNbO3,"['icsd-16380', 'icsd-200854']",Triclinic,P-1,2.0,-1,20.0,3.0,354.33464490495100,4.243448231713890,-8.024195444,-2.8398143947500000
mp-756063,RbNbO3,,Monoclinic,C2/m,12.0,2/m,20.0,3.0,351.06995002341200,4.2829092101349300,-7.9998760765,-2.8154950272500000
mp-27409,RbNiBr3,['icsd-15011'],Hexagonal,P6_3/mmc,194.0,6/mmm,10.0,3.0,292.0606172205690,4.365096884934360,-3.6002296220000000,-1.3162784735000000
mp-23486,RbNiCl3,"['icsd-15010', 'icsd-60261']",Hexagonal,P6_3/mmc,194.0,6/mmm,10.0,3.0,247.98095497605700,3.35508490248867,-4.01275916,-1.5515030135000000
mp-556488,RbNiF3,"['icsd-15090', 'icsd-410391', 'icsd-16267', 'icsd-22127', 'icsd-410390', 'icsd-16268', 'icsd-91834']",Hexagonal,P6_3/mmc,194.0,6/mmm,30.0,3.0,420.4561769345900,4.766652435548680,-5.116213330000000,-2.6171917990000000
mp-975373,RbNiO3,,Cubic,Pm-3m,221.0,m-3m,5.0,3.0,66.52489446797710,4.796523065031160,-4.971713716,-0.6515663387500000
mp-975288,RbNpO3,,Cubic,Pm-3m,221.0,m-3m,5.0,3.0,79.7970001194663,7.709227977568610,-8.831984582,-3.0783086045000000
mp-1040467,RbOsO3,,Cubic,Pm-3m,221.0,m-3m,5.0,3.0,62.76469020489100,8.563889217767020,-6.930602086,-1.5210085587500000
mp-998602,RbOsO3,,Trigonal,R-3,148.0,-3,10.0,3.0,160.14665193020000,6.7127204624474900,-7.021161255,-1.6115677277500000
mp-1206844,RbPaO3,,Cubic,Pm-3m,221.0,m-3m,5.0,3.0,84.09243655756400,7.1976700446159400,-8.604355962,-3.5373029887500000
mp-998176,RbPbBr3,,Monoclinic,Cm,8.0,m,5.0,3.0,214.22580793725100,4.126661790570240,-3.493827592,-1.6233743655000000
mp-998603,RbPbBr3,,Orthorhombic,Cmcm,63.0,mmm,10.0,3.0,367.8035851927660,4.807117123153490,-3.533220957,-1.6627677305000000
mp-998605,RbPbCl3,,Monoclinic,Cm,8.0,m,5.0,3.0,186.76458044490600,3.547779715200580,-3.8763878300000000,-1.8286296055000000
mp-998604,RbPbCl3,,Orthorhombic,Cmcm,63.0,mmm,10.0,3.0,321.3275545873430,4.124138005352900,-3.914520416,-1.8667621915
mp-1209191,RbPbCl3,,Cubic,Pm-3m,221.0,m-3m,5.0,3.0,187.45133578838100,3.534781906107160,-3.8761675960000000,-1.8284093715000000
mp-21043,RbPbF3,['icsd-49591'],Cubic,Pm-3m,221.0,m-3m,5.0,3.0,114.91289263893800,5.052775839610080,-4.831842524,-2.746318915
mp-1179717,RbPbF3,,Triclinic,P-1,2.0,-1,20.0,3.0,451.6557896664940,5.142226455367460,-4.8500922785,-2.7645686695
mp-1540546,RbPbF3,,Trigonal,R3c,161.0,3m,10.0,3.0,204.38899729740900,5.681608063675270,-4.865931515,-2.7804079060000000
mp-674508,RbPbF3,,Monoclinic,Cc,9.0,m,10.0,3.0,204.61661089923400,5.675287896070850,-4.863992855,-2.7784692460000000
mp-605350,RbPbF3,,Triclinic,P-1,2.0,-1,20.0,3.0,411.7145987173430,5.641083307656560,-4.8104920635,-2.7249684545
mp-1173075,RbPbF3,,Orthorhombic,Ima2,46.0,mm2,10.0,3.0,245.4732396767130,4.730691527519800,-4.744235088,-2.658711479
mp-23517,RbPbI3,"['icsd-161482', 'icsd-161483', 'icsd-6067']",Orthorhombic,Pnma,62.0,mmm,20.0,3.0,886.2002703632760,5.047056938770780,-3.0889906175,-1.266334579
mp-1385732,RbPdBr3,,Orthorhombic,Amm2,38.0,mm2,5.0,3.0,148.24605360759700,4.83445131655105,-3.435351548,-1.2714513735000000
mp-998173,RbPdCl3,,Cubic,Pm-3m,221.0,m-3m,5.0,3.0,125.490540284061,3.946516301287620,-3.77837043,-1.4371652575000000
mp-9060,RbPdF3,['icsd-73166'],Cubic,Pm-3m,221.0,m-3m,5.0,3.0,82.06816613804430,5.035813274523740,-4.498189628,-2.119219071
mp-975255,RbPdO3,,Cubic,Pm-3m,221.0,m-3m,5.0,3.0,70.35850277043420,5.661576907486390,-4.9749704460000000,-0.7748740427500000
mp-9138,RbPO3,['icsd-74738'],Orthorhombic,Pnma,62.0,mmm,20.0,3.0,351.4652348774250,3.1076604091285100,-6.9216023280000000,-2.674821785416670
mp-548658,RbPO3,['icsd-70035'],Orthorhombic,Cmcm,63.0,mmm,10.0,3.0,197.61800656873500,2.7634996794528600,-6.877258203000000,-2.630477660416670
mp-1179733,RbPO3,,Monoclinic,P2_1/c,14.0,2/m,60.0,3.0,1293.4467402214200,2.53331172049646,-5.750318731000000,-1.5035381884166700
mp-616587,RbPO3,['icsd-74737'],Monoclinic,P2_1/c,14.0,2/m,40.0,3.0,710.7564179441410,3.073442794292050,-6.9265677842500000,-2.6797872416666700
mp-4135,RbPO3,"['icsd-74736', 'icsd-16629', 'icsd-16612']",Monoclinic,P2_1/c,14.0,2/m,20.0,3.0,330.3261195543580,3.3065341520287700,-6.9249406455000000,-2.6781601029166700
mp-556953,RbPS3,['icsd-416176'],Orthorhombic,Immm,71.0,mmm,10.0,3.0,282.46844577595800,2.500040790174270,-4.741105192,-0.9804679560416670
mp-571464,RbPSe3,['icsd-173419'],Trigonal,P3_121,152.0,32,30.0,3.0,936.9033196344340,3.7572986100768100,-4.181909743666670,-0.8055955412395830
mp-975236,RbPtO3,,Cubic,Pm-3m,221.0,m-3m,5.0,3.0,69.17709751024130,7.8865712781699300,-5.268046396,-0.8896996907500000
mp-1186888,RbPuO3,,Cubic,Pm-3m,221.0,m-3m,5.0,3.0,78.55915213020250,7.978663495176140,-8.99899963,-2.9813119227500000
mp-975216,RbReO3,,Cubic,Pm-3m,221.0,m-3m,5.0,3.0,63.238020189559700,8.394151231269240,-7.627734916,-1.9747094377500000
mp-1186897,RbRhO3,,Cubic,Pm-3m,221.0,m-3m,5.0,3.0,66.07194957741820,5.940555901425840,-5.74644687,-1.1094652547500000
mp-975208,RbRuO3,,Cubic,Pm-3m,221.0,m-3m,5.0,3.0,62.97762089316110,6.184041013311600,-6.458186190000000,-1.4391856407500000
mp-975206,RbSbO3,,Cubic,Pm-3m,221.0,m-3m,5.0,3.0,68.44503210008950,6.192016145047550,-5.789894704,-1.7999744147500000
mp-1206561,RbScBr3,,Hexagonal,P6_3/mmc,194.0,6/mmm,10.0,3.0,319.4504706016910,3.848013174387560,-4.418660071,-2.0242424375
mp-1206320,RbScCl3,,Hexagonal,P6_3/mmc,194.0,6/mmm,10.0,3.0,273.09077017976400,2.8795330088430200,-4.874307268,-2.3025846365
mp-998366,RbSeBr3,,Tetragonal,P4mm,99,4mm,5,3,165.720969895569,4.04951724993406,-2.96387529,-1.13676918196875
mp-998299,RbSeBr3,,Monoclinic,P2_1/m,11,2/m,10,3,354.432179290841,3.78684535704771,-2.973246042,-1.14613993396875
mp-725554,RbSeO3,"['icsd-62335', 'icsd-62876']",Triclinic,P-1,2,-1,10,3,210.464884419131,3.35202399901641,-5.297730111,-1.43442777421875
mp-1206676,RbSmI3,,Orthorhombic,Cmcm,63.0,mmm,10.0,3.0,429.65574052480800,4.765632895412100,-3.572161785,-1.5483179335000000
mp-975207,RbSmO3,,Cubic,Pm-3m,221.0,m-3m,5.0,3.0,95.87752908908860,4.915689480054080,-6.306784188,-2.19894691975
mp-998778,RbSnBr3,,Orthorhombic,Pnma,62.0,mmm,20.0,3.0,701.0268168324550,4.205809743460500,-3.5038129585,-1.573974775
mp-998157,RbSnBr3,,Triclinic,P1,1.0,1,5.0,3.0,205.86806440407300,3.5804307788045500,-3.492675132,-1.5628369485
mp-998611,RbSnCl3,,Trigonal,R3c,161.0,3m,10.0,3.0,351.0235235553610,2.938028100191550,-3.88993258,-1.7827893985000000
mp-998620,RbSnF3,,Trigonal,R-3,148.0,-3,10.0,3.0,206.8561193960560,4.1931366289622600,-4.918072841,-2.773164275
mp-998193,RbSnF3,,Triclinic,P1,1.0,1,5.0,3.0,112.25028907002000,3.863580122379640,-4.8886997700000000,-2.743791204
mp-1198796,RbSnF3,['icsd-236902'],Monoclinic,P2_1/c,14.0,2/m,80.0,3.0,1776.2439096465500,3.90656245554561,-4.930896661625,-2.7859880956250000
mp-29405,RbSnI3,['icsd-400934'],Orthorhombic,Pnma,62.0,mmm,20.0,3.0,862.5786152100530,4.503866369000730,-3.064690359,-1.1826493635
mp-1186893,RbSnO3,,Cubic,Pm-3m,221.0,m-3m,5.0,3.0,74.11954479593330,5.649631292418530,-5.616609184,-1.6505747717500000
mp-3404,RbSO3,"['icsd-27581', 'icsd-15966']",Trigonal,P321,150,32,30,3,572.751582723195,2.87947550587083,-6.06978162833333,-2.07837161370833
mp-1209111,RbSrCl3,,Tetragonal,P4/mbm,127.0,4/mmm,10.0,3.0,341.9263512032980,2.7142238485179500,-4.275119462,-2.631991960833330
mp-1209047,RbSrCl3,,Cubic,Pm-3m,221.0,m-3m,5.0,3.0,184.83298442262500,2.510549347487330,-4.243535842,-2.6004083408333300
mp-998755,RbSrCl3,,Trigonal,R-3,148.0,-3,10.0,3.0,364.2007121581190,2.548223070112480,-4.283996577,-2.6408690758333300
mp-1209174,RbSrCl3,,Monoclinic,P2_1/m,11.0,2/m,20.0,3.0,697.6515205683060,2.660539336649660,-4.2824693215,-2.6393418203333300
mp-1205862,RbSrI3,,Orthorhombic,Cmcm,63.0,mmm,10.0,3.0,462.73132529360100,3.9746976012564700,-3.3178509250000000,-1.8998256098333300
mp-975200,RbSrO3,,Cubic,Pm-3m,221.0,m-3m,5.0,3.0,114.28712685110700,3.2122772721079200,-4.862160836,-1.3601421040833300
mp-755018,RbTaO3,,Trigonal,R3m,160.0,3m,5.0,3.0,68.49564662455090,7.622331586751530,-8.518033926,-2.9823583587500000
mp-858693,RbTaO3,,Triclinic,P-1,2.0,-1,20.0,3.0,365.63260409305600,5.711706505127830,-6.185109389,-0.6494338217500000
mp-780619,RbTaO3,,Triclinic,P-1,2.0,-1,20.0,3.0,351.31680591297100,5.9444526653315900,-8.5702714375,-3.03459587025
mp-3033,RbTaO3,"['icsd-2301', 'icsd-1633']",Monoclinic,C2/m,12.0,2/m,20.0,3.0,333.98647387684900,6.252906290016970,-8.5706009055,-3.0349253382500000
mp-1076534,RbTaO3,,Cubic,Pm-3m,221.0,m-3m,5.0,3.0,67.47978870917990,7.737080106628420,-8.513938632,-2.97826306475
mp-980058,RbTbO3,,Cubic,Pm-3m,221.0,m-3m,5.0,3.0,93.27023664401830,5.205596950118300,-6.363580492,-2.2725872307500000
mp-569807,RbTiBr3,['icsd-154257'],Hexagonal,P6_3/mmc,194.0,6/mmm,10.0,3.0,315.61866845293200,3.9253621346704200,-4.444833229,-1.737811013166670
mp-28282,RbTiCl3,['icsd-49747'],Hexagonal,P6_3/mmc,194.0,6/mmm,10.0,3.0,258.407513700243,3.080567691104510,-4.913430387,-2.0291031731666700
mp-27812,RbTiI3,['icsd-26457'],Hexagonal,P6_3cm,185.0,6mm,30.0,3.0,1213.1788447065900,4.221622254024270,-3.881694807,-1.2224697791666700
mp-998391,RbTlBr3,,Monoclinic,Cm,8.0,m,5.0,3.0,198.67036766260500,4.426227354011800,-3.045796146,-1.4453437041666700
mp-1114101,RbTlBr3,,Cubic,Fm-3m,225.0,m-3m,10.0,3.0,410.83026979802900,4.2808930131273400,-3.04419525,-1.4437428081666700
mp-998606,RbTlBr3,,Trigonal,R3c,161.0,3m,10.0,3.0,393.9524168152760,4.464296591393340,-3.042998968,-1.442546526166670
mp-1113994,RbTlCl3,,Cubic,Fm-3m,225.0,m-3m,10.0,3.0,357.304149731101,3.682701978841440,-3.410039869,-1.6322824291666700
mp-998434,RbTlF3,,Orthorhombic,Pbam,55.0,mmm,40.0,3.0,826.4335141674550,5.575300007304760,-4.2553120555,-2.4397892311666700
mp-1410049,RbTlF3,,Orthorhombic,Amm2,38.0,mm2,5.0,3.0,107.06773809055900,5.379322076550190,-4.2444494080000000,-2.4289265836666700
mp-998607,RbTlF3,,Monoclinic,Cm,8.0,m,5.0,3.0,107.06566338086300,5.379426316614820,-4.24420102,-2.4286781956666700
mp-1113914,RbTlF3,,Cubic,Fm-3m,225.0,m-3m,10.0,3.0,211.58452184879100,5.444177505653690,-4.297066624,-2.4815437996666700
mp-1114149,RbTlI3,,Cubic,Fm-3m,225.0,m-3m,10.0,3.0,497.8528866231680,4.473203211025310,-2.6088607440000000,-1.0562054901666700
mp-975179,RbTlO3,,Cubic,Pm-3m,221.0,m-3m,5.0,3.0,89.05927106621660,6.299310050004170,-4.426606022,-0.7899573514166670
mp-1209127,RbTmBr3,,Orthorhombic,Pnma,62.0,mmm,20.0,3.0,685.0190689917480,4.791081907644050,-3.9128281845000000,-1.8897372873333300
mp-1209166,RbTmI3,,Orthorhombic,Pnma,62.0,mmm,20.0,3.0,795.5064183204510,5.3029564183113,-3.4936073215,-1.5183136123333300
mp-1209132,RbTmI3,,Orthorhombic,Pnma,62.0,mmm,20.0,3.0,850.3948079234470,4.960679236908070,-3.3901987055,-1.4149049963333300
mp-981550,RbTmO3,,Cubic,Pm-3m,221.0,m-3m,5.0,3.0,88.45690592881740,5.676745723585780,-6.401446674000000,-2.342159548083330
mp-11775,RbUO3,['icsd-99548'],Cubic,Pm-3m,221.0,m-3m,5.0,3.0,81.09117912744910,7.607261575621100,-8.727750540000000,-3.3053484967500000
mp-568136,RbVBr3,['icsd-201836'],Trigonal,P-3c1,165.0,-3m,30.0,3.0,929.5890108093450,4.031227382216600,-4.543947785,-1.5992427585000000
mp-29314,RbVBr3,['icsd-201835'],Hexagonal,P6_3cm,185.0,6mm,30.0,3.0,933.5879397779930,4.013960029810800,-4.543966395666670,-1.5992613691666700
mp-570099,RbVBr3,['icsd-201831'],Hexagonal,P6_3/mmc,194.0,6/mmm,10.0,3.0,310.2622825941330,4.026039563741600,-4.543628569,-1.5989235425000000