material_id,formula_pretty,icsd,crystal_system,symbol,number,point_group,nsites,nelements,volume,density,energy_per_atom,formation_energy_per_atom
mp-1232195,DyMgS3,,Trigonal,R-3,148.0,-3,30.0,3.0,699.9495648052990,4.0282835747902900,-5.359150817333330,-1.6358675192083300
mp-1232163,DyMgS3,,Monoclinic,C2/m,12.0,2/m,10.0,3.0,259.9485633842170,3.6155810959664100,-5.279874477,-1.556591178875
mp-1238023,DyMgSe3,,Monoclinic,C2/m,12.0,2/m,10.0,3.0,288.02905750474,4.88523970829466,-4.771654079,-1.4326938144062500
mp-1232192,DyMgSe3,,Monoclinic,C2/m,12.0,2/m,20.0,3.0,587.665754474099,4.788745909225370,-4.7245185855,-1.38555832090625
mp-1232257,DyMgSe3,,Trigonal,R-3,148.0,-3,30.0,3.0,799.4423552836780,5.280271852867530,-4.844564725666670,-1.505604461072920
mp-1188804,DyMnO3,['icsd-180804'],Orthorhombic,Pnma,62.0,mmm,20.0,3.0,265.476147196803,6.641157921993780,-8.4585087345,-2.736735081336210
mp-22103,DyMnO3,"['icsd-157396', 'icsd-91711', 'icsd-162205']",Orthorhombic,Pnma,62.0,mmm,20.0,3.0,234.55679858536600,7.51659738148573,-8.7599994545,-3.038225801336210
mp-542479,DyMnO3,"['icsd-191974', 'icsd-261886', 'icsd-99785']",Hexagonal,P6_3cm,185.0,6mm,30.0,3.0,372.6490140346330,7.096767809612050,-8.782302025666670,-3.0605283725028700
mp-19265,DyNiO3,"['icsd-162114', 'icsd-87803', 'icsd-162115', 'icsd-162116']",Orthorhombic,Pnma,62.0,mmm,20.0,3.0,209.4585969454160,8.53635371800083,-7.549553843500000,-2.5041559127500000
mp-1183790,DyPaO3,,Cubic,Pm-3m,221.0,m-3m,5.0,3.0,79.95281100327920,9.170216529913110,-8.622724074,-2.83042054725
mp-1183821,DyRhO3,,Cubic,Pm-3m,221.0,m-3m,5.0,3.0,61.17914549087620,8.506478527795030,-7.377436208000000,-2.0152040392500000
mp-1212884,DyRhO3,,Orthorhombic,Pnma,62.0,mmm,20.0,3.0,227.48179478810200,9.15095799998858,-7.946916541,-2.5846843722500000
mp-1207184,DySbO3,,Cubic,Pm-3m,221.0,m-3m,5.0,3.0,76.65860027562860,7.197205784014320,-6.611775036,-1.8966041932500000
mp-31120,DyScO3,['icsd-99545'],Orthorhombic,Pnma,62.0,mmm,20.0,3.0,250.40624850722800,6.776053476754480,-9.1200012305,-3.9641368147500000
mp-1184176,DyScS3,,Orthorhombic,Pnma,62.0,mmm,20.0,3.0,425.38287482371700,4.7413681351763400,-6.955855601500000,-2.286134492375000
mp-769393,DySeO3,,Monoclinic,P2_1/c,14,2/m,40,3,618.549584102535,6.21656418953199,-7.1167769105,-2.52822402021875
mp-1184153,DySnO3,,Cubic,Pm-3m,221.0,m-3m,5.0,3.0,70.88038130870990,7.712473706428710,-6.844083536000000,-2.15279857025
mp-779599,DyTiO3,,Orthorhombic,Pnma,62.0,mmm,20.0,3.0,234.66081411815700,7.313117184258950,-9.103798283,-3.635329284916670
mp-752435,DyTmO3,,Orthorhombic,Pnma,62.0,mmm,20.0,3.0,277.3965902475890,9.085365315800440,-8.748449256500000,-3.9639115770833300
mp-22789,DyVO3,['icsd-40392'],Orthorhombic,Pnma,62.0,mmm,20.0,3.0,224.4936902037990,7.735287972077500,-9.005861854,-3.2997100452500000
mp-768333,DyYO3,,Hexagonal,P6_3cm,185.0,6mm,30.0,3.0,460.54369843257200,6.477198017239400,-9.077124425333330,-3.894459607916670
mp-1184150,ErAlO3,,Cubic,Pm-3m,221.0,m-3m,5.0,3.0,50.466770895183300,7.9705295534887600,-8.226557722000000,-3.59588556725
mp-754184,ErAlO3,,Hexagonal,P6_3/mmc,194.0,6/mmm,10.0,3.0,117.7313500695250,6.833301217588390,-8.326985139,-3.6963129842500000
mp-756458,ErAlO3,,Orthorhombic,Pnma,62.0,mmm,20.0,3.0,199.38917785385300,8.069583178361680,-8.3947958515,-3.76412369675
mp-1184148,ErBeO3,,Cubic,Pm-3m,221.0,m-3m,5.0,3.0,44.862770948253700,8.30104923039167,-7.517869266,-2.8884297042500000
mp-754636,ErBiO3,,Trigonal,R-3,148.0,-3,10.0,3.0,156.55404848043200,8.999615342540000,-7.458220703,-2.8085658882500000
mp-754943,ErBiO3,,Trigonal,R3c,161.0,3m,10.0,3.0,157.85021467352300,8.925716189586980,-7.478872331,-2.8292175162500000
mp-10791,ErBO3,['icsd-412168'],Triclinic,P-1,2.0,-1,60.0,3.0,611.7684685111600,7.363473545399190,-8.723252135333330,-3.505816792416670
mp-760405,ErBO3,,Orthorhombic,Ama2,40.0,mm2,10.0,3.0,117.21055077696300,6.405482703178710,-8.692274711,-3.474839368083330
mp-1194043,ErBO3,['icsd-422094'],Monoclinic,C2/c,15.0,2/m,30.0,3.0,317.461550106139,7.094939422246890,-8.785447342,-3.5680119990833300
mp-562779,ErCoO3,['icsd-172049'],Orthorhombic,Pnma,62.0,mmm,20.0,3.0,201.45109439388900,9.040484271457940,-7.962130946500000,-2.65891039875
mp-19063,ErCrO3,"['icsd-28487', 'icsd-251084', 'icsd-183759', 'icsd-251083']",Orthorhombic,Pnma,62.0,mmm,20.0,3.0,214.92554267079600,8.25931696741174,-9.049514932000000,-3.237348449250000
mp-1184157,ErCuO3,,Cubic,Pm-3m,221.0,m-3m,5.0,3.0,53.403026653845300,8.669239076915820,-6.906084548,-2.2046862252500000
mp-19935,ErFeO3,"['icsd-98307', 'icsd-16782', 'icsd-27282', 'icsd-189733']",Orthorhombic,Pnma,62.0,mmm,20.0,3.0,222.00710582040700,8.111015951090810,-8.4404627115,-2.8649014807500000
mp-1184164,ErGaO3,,Cubic,Pm-3m,221.0,m-3m,5.0,3.0,55.66853613625380,8.500686171255350,-7.303556288,-2.81638009475
mp-1213088,ErGaO3,,Hexagonal,P6_3cm,185.0,6mm,30.0,3.0,360.1146356972320,7.884501906865190,-7.672729524666670,-3.1855533314166700
mp-1213082,ErGaO3,,Orthorhombic,Pnma,62.0,mmm,20.0,3.0,223.6325630585220,8.464254915929130,-7.63556537,-3.1483891767500000
mp-754208,ErInO3,,Orthorhombic,Pnma,62.0,mmm,20.0,3.0,263.6689277873230,8.31501488044752,-7.379971363,-2.94807762825
mp-772217,ErInO3,,Hexagonal,P6_3cm,185.0,6mm,30.0,3.0,411.7619876949490,7.986693005599140,-7.444365362666670,-3.0124716279166700
mp-1184162,ErIrO3,,Cubic,Pm-3m,221.0,m-3m,5.0,3.0,62.230624822273900,10.872891436715900,-7.4192794940000000,-1.77003566925
mp-778151,ErLuO3,,Orthorhombic,Pnma,62.0,mmm,20.0,3.0,268.38545271091100,9.657491079156210,-8.78571314,-3.9999660472500000
mp-1232164,ErMgS3,,Monoclinic,C2/m,12.0,2/m,10.0,3.0,251.4507872746820,3.8006248971793200,-5.23265149,-1.517181797875
mp-1232145,ErMgSe3,,Monoclinic,C2/m,12.0,2/m,10.0,3.0,287.22705770763500,4.953906540201690,-4.721561171000000,-1.3904145124062500
mp-1232210,ErMgSe3,,Trigonal,R-3,148.0,-3,30.0,3.0,785.1567335028350,5.436733606114850,-4.836362883333330,-1.5052162247395800
mp-19319,ErMnO3,"['icsd-159309', 'icsd-183141', 'icsd-162208', 'icsd-159310', 'icsd-159311']",Orthorhombic,Pnma,62.0,mmm,20.0,3.0,219.05849135196700,8.192693324289690,-8.762813469,-3.048853421836210
mp-19217,ErMnO3,"['icsd-182639', 'icsd-162201', 'icsd-280583']",Hexagonal,P6_3cm,185.0,6mm,30.0,3.0,364.2792410031500,7.389986188010840,-8.797218649666670,-3.0832586025028700
mp-18983,ErNiO3,"['icsd-191795', 'icsd-92048']",Orthorhombic,Pnma,62.0,mmm,20.0,3.0,205.77977925513700,8.842572876016030,-7.555905561,-2.5183212362500000
mp-1189736,ErNiO3,['icsd-191791'],Monoclinic,P2_1/c,14.0,2/m,20.0,3.0,213.8945756855630,8.507100699687620,-7.5543288540000000,-2.516744529250000
mp-1213022,ErRhO3,,Orthorhombic,Pnma,62.0,mmm,20.0,3.0,223.42346421208700,9.458659049049960,-7.951800669000000,-2.5973821062500000
mp-1212985,ErScO3,,Orthorhombic,Pnma,62.0,mmm,20.0,3.0,246.3404099624590,7.016210424971040,-9.120838515500000,-3.97278770575
mp-1184204,ErTaO3,,Cubic,Pm-3m,221.0,m-3m,5.0,3.0,65.10560203138380,10.105336456427100,-9.040627106000000,-2.7875145912500000
mp-756296,ErTiO3,,Orthorhombic,Pnma,62.0,mmm,20.0,3.0,231.137505183394,7.561352072588910,-9.1054427035,-3.6447873114166700
mp-1184219,ErTlO3,,Cubic,Pm-3m,221.0,m-3m,5.0,3.0,85.532955416,8.146911804794330,-6.351558452,-1.9974728339166700
mp-19205,ErVO3,"['icsd-40393', 'icsd-161781', 'icsd-185838']",Orthorhombic,Pnma,62.0,mmm,20.0,3.0,220.50361904723000,8.018613803040650,-9.009617456500000,-3.3112792537500000
mp-1184207,ErZnO3,,Cubic,Pm-3m,221.0,m-3m,5.0,3.0,56.07202994545840,8.311758825701610,-6.419305086,-2.28579937525
mp-1077622,EuAgO3,,Cubic,Pm-3m,221.0,m-3m,5.0,3.0,68.38646826734630,7.474642543153220,-7.10164906,-1.5157242725833300
mp-973892,EuAlO3,,Cubic,Pm-3m,221.0,m-3m,5.0,3.0,53.50400309174230,7.043378478043640,-9.0909795,-3.322450747250000
mp-21455,EuAlO3,['icsd-109353'],Orthorhombic,Pnma,62.0,mmm,20.0,3.0,214.60824909909600,7.023941445821060,-9.0998939205,-3.3313651677500000
mp-983564,EuAsO3,,Cubic,Pm-3m,221.0,m-3m,5.0,3.0,63.92572475193850,7.140400682928810,-8.219218426000000,-2.267981158250000
mp-1184383,EuAuO3,,Cubic,Pm-3m,221.0,m-3m,5.0,3.0,69.40281719206340,9.496959262589130,-7.157114180000000,-1.482924193250000
mp-1184325,EuBeO3,,Cubic,Pm-3m,221.0,m-3m,5.0,3.0,48.33761733293480,7.178883535766600,-8.339704094,-2.5724079342500000
mp-22030,EuBO3,['icsd-88201'],Triclinic,P-1,2.0,-1,20.0,3.0,239.3371010637980,5.849442167330320,-9.460576592000000,-3.105284651083330
mp-1225223,EuBO3,,Orthorhombic,Ama2,40.0,mm2,10.0,3.0,128.79283262488700,5.435040532289110,-9.420712440000000,-3.0654204990833300
mp-1183878,EuCdO3,,Cubic,Pm-3m,221.0,m-3m,5.0,3.0,72.1640053711473,7.187903433173980,-6.894096038000000,-1.690104499250000
mp-554518,EuCO3,['icsd-109074'],Orthorhombic,Pnma,62.0,mmm,20.0,3.0,255.55419158161800,5.509426855134600,-9.494560945,-2.629414259750000
mp-1075975,EuCoO3,,Cubic,Pm-3m,221.0,m-3m,5.0,3.0,53.58753660007630,8.022498230674900,-8.564379340000000,-2.123302194250000
mp-1212757,EuCoO3,,Orthorhombic,Pnma,62.0,mmm,20.0,3.0,211.81646781083600,8.118460703334330,-8.661387889,-2.220310743250000
mp-1189762,EuCrO3,"['icsd-251085', 'icsd-251086']",Orthorhombic,Pnma,62.0,mmm,20.0,3.0,223.9490845861660,7.472887885695220,-9.7527013635,-2.80267828275
mp-754941,EuCrO3,,Cubic,Pm-3m,221.0,m-3m,5.0,3.0,58.39386651041870,7.164906612742860,-9.675087826,-2.7250647452500000
mp-1075902,EuCuO3,,Cubic,Pm-3m,221.0,m-3m,5.0,3.0,56.00318956067430,7.813227494755170,-7.823912492,-1.9846575712500000
mp-1338333,EuCuO3,,Monoclinic,C2/c,15.0,2/m,20.0,3.0,281.02284919719700,6.228186237801620,-7.8196207095000000,-1.9803657887500000
mp-1183905,EuErO3,,Cubic,Pm-3m,221.0,m-3m,5.0,3.0,79.70974853734870,7.65006990830001,-9.080307512000000,-3.1473501632500000
mp-1011260,EuFeO3,,Orthorhombic,Imma,74.0,mmm,10.0,3.0,119.22227858255000,7.1258132987861300,-9.13360513,-2.4201873012500000
mp-1075904,EuFeO3,,Cubic,Pm-3m,221.0,m-3m,5.0,3.0,57.74869900077950,7.3556262992492000,-9.079024254,-2.36560642525
mp-504703,EuFeO3,"['icsd-27277', 'icsd-189728']",Orthorhombic,Pnma,62.0,mmm,20.0,3.0,239.5344445916090,7.093390678602060,-9.147178386,-2.433760557250000
mp-1206706,EuGaO3,,Hexagonal,P6_3/mmc,194.0,6/mmm,10.0,3.0,135.502516149272,6.609808039143790,-8.324854689,-2.69982189775
mp-1212729,EuGaO3,,Orthorhombic,Pnma,62.0,mmm,20.0,3.0,236.15862870516200,7.5851187439427300,-8.315547045000000,-2.69051425375
mp-865181,EuGeO3,,Cubic,Pm-3m,221.0,m-3m,5.0,3.0,56.591825126869500,7.998798443526120,-8.551858304,-2.6078391462500000
mp-581575,EuGeS3,"['icsd-2410', 'icsd-631316']",Triclinic,P-1,2.0,-1,30.0,3.0,758.0085476455870,4.216569380496870,-6.824023990333330,-1.3661481392083300
mp-644246,EuH3Pd,['icsd-93047'],Cubic,Pm-3m,221.0,m-3m,5.0,3.0,54.489749979605100,7.966230301794580,-5.650350778,-0.5273384290000000
mp-753781,EuHfO3,,Cubic,Pm-3m,221.0,m-3m,5.0,3.0,68.80440725408810,9.133639660900900,-10.737502918,-3.72665152525
mp-1190059,EuHfS3,['icsd-631329'],Orthorhombic,Pnma,62.0,mmm,20.0,3.0,450.9171333105740,6.2846787570421200,-8.6395778415,-2.1148697553750000
mp-1212795,EuInO3,,Orthorhombic,Pnma,62.0,mmm,20.0,3.0,279.6165782496860,7.477451054785570,-8.079665279,-2.5099149462500000
mp-1212980,EuInO3,,Hexagonal,P6_3cm,185.0,6mm,30.0,3.0,439.51987488208300,7.13557929045729,-8.1493065,-2.5795561672500000
mp-1184304,EuInO3,,Cubic,Pm-3m,221.0,m-3m,5.0,3.0,73.62807472763180,7.0992596428166000,-7.791177356,-2.22142702325
mp-1184445,EuIrO3,,Cubic,Pm-3m,221.0,m-3m,5.0,3.0,64.50455212341310,10.095859304037500,-8.687974162,-1.900873739250000
mp-1184309,EuLuO3,,Cubic,Pm-3m,221.0,m-3m,5.0,3.0,77.17786059059610,8.066880567105850,-9.165762474000000,-3.2421587832500000
mp-972931,EuMgO3,,Cubic,Pm-3m,221.0,m-3m,5.0,3.0,60.3603799640011,6.169683609995450,-7.882311952,-2.542842355250000
mp-20614,EuMnO3,"['icsd-95492', 'icsd-157392', 'icsd-169489']",Orthorhombic,Pnma,62.0,mmm,20.0,3.0,224.65083958060300,7.536527630141270,-9.5115735725,-2.6597569273362100
mp-1099619,EuMnO3,,Cubic,Pm-3m,221.0,m-3m,5.0,3.0,58.274424527282700,7.263423334369360,-9.462677474,-2.610860828836210
mp-1184411,EuMoO3,,Cubic,Pm-3m,221.0,m-3m,5.0,3.0,68.93214563075510,7.128128081561700,-9.67815512,-2.4896115112500000
mp-1078341,EuNbO3,"['icsd-252711', 'icsd-252710']",Orthorhombic,Imma,74.0,mmm,10.0,3.0,131.97665110991400,7.369784191063380,-10.190223450000000,-3.150548855250000
mp-755572,EuNbO3,"['icsd-252713', 'icsd-252712']",Cubic,Pm-3m,221.0,m-3m,5.0,3.0,67.08132537327680,7.24970348697676,-10.171373174,-3.1316985792500000
mp-977412,EuNiO3,,Cubic,Pm-3m,221.0,m-3m,5.0,3.0,54.54536765826050,7.874320900829370,-8.185839854,-2.0103989312500000
mp-20718,EuNiO3,"['icsd-88039', 'icsd-91047', 'icsd-56611', 'icsd-80400']",Orthorhombic,Pnma,62.0,mmm,20.0,3.0,215.03561772695800,7.989517887966480,-8.257220939000000,-2.0817800162500000
mp-1213363,EuNpO3,,Orthorhombic,Pnma,62.0,mmm,20.0,3.0,311.6587018232610,9.312659001434980,-11.035051473500000,-3.4260819505000000
mp-977370,EuOsO3,,Cubic,Pm-3m,221.0,m-3m,5.0,3.0,63.46142186546040,10.209815231625700,-9.311723178,-2.04683610525
mp-1184348,EuPbO3,,Cubic,Pm-3m,221.0,m-3m,5.0,3.0,78.6682649547427,8.594428006411010,-7.768094994,-2.0061519932500000
mp-1184369,EuPdO3,,Cubic,Pm-3m,221.0,m-3m,5.0,3.0,65.4166296222544,7.777221409122810,-7.853212588,-1.7978226392500000
mp-20217,EuPS3,['icsd-412763'],Monoclinic,P2_1/c,14.0,2/m,20.0,3.0,468.05891340219600,3.961132607857610,-7.0126926780000000,-1.3967618965416700
mp-20742,EuPSe3,"['icsd-412767', 'icsd-87891']",Monoclinic,P2_1/c,14.0,2/m,20.0,3.0,531.1167416469150,5.2502490694750300,-6.4449180005,-1.2133102525729200
mp-976258,EuPtO3,,Cubic,Pm-3m,221.0,m-3m,5.0,3.0,67.25453921150800,9.75383455009428,-7.9838324400000000,-1.7501921892500000
mp-976320,EuReO3,,Cubic,Pm-3m,221.0,m-3m,5.0,3.0,64.0656384268225,10.009250803769300,-9.868711476,-2.360392452250000
mp-19801,EuRhO3,"['icsd-172357', 'icsd-172351']",Orthorhombic,Pnma,62.0,mmm,20.0,3.0,238.55630034079900,8.432787516285550,-8.7051008885,-2.21282572775
mp-866036,EuRuO3,,Cubic,Pm-3m,221.0,m-3m,5.0,3.0,63.26752854159860,7.900983963296030,-9.041606374,-2.1673122792500000
mp-976284,EuSbO3,,Cubic,Pm-3m,221.0,m-3m,5.0,3.0,75.0801479185892,7.115493196307720,-8.157579888000000,-2.31236605325
mp-22487,EuScO3,"['icsd-4128', 'icsd-99542']",Orthorhombic,Pnma,62.0,mmm,20.0,3.0,261.33230177110800,6.224964772248110,-9.818837690000000,-3.5329302822500000
mp-755177,EuSeO3,,Monoclinic,P2_1/m,11,2/m,10,3,148.474273750944,6.23894224825698,-7.976394935,-2.25779905271875
mp-866030,EuSiO3,,Cubic,Pm-3m,221.0,m-3m,5.0,3.0,51.38487331369100,7.369525124378980,-9.182717856,-3.07824066325
mp-862606,EuSnO3,,Cubic,Pm-3m,221.0,m-3m,5.0,3.0,67.71753422187590,7.814337063803230,-8.37124034,-2.5499123822500000
mp-1184447,EuTcO3,,Cubic,Pm-3m,221.0,m-3m,5.0,3.0,62.47493265931670,7.919622357468800,-9.522178676,-2.4306373002500000
mp-22246,EuTiO3,"['icsd-187109', 'icsd-290422', 'icsd-187117', 'icsd-187111', 'icsd-187108', 'icsd-187102', 'icsd-187106', 'icsd-187105', 'icsd-187110', 'icsd-187113', 'icsd-187107', 'icsd-424907', 'icsd-187101', 'icsd-187115', 'icsd-24669', 'icsd-187204', 'icsd-187114', 'icsd-187104', 'icsd-187103', 'icsd-187205']",Cubic,Pm-3m,221.0,m-3m,5.0,3.0,59.49625945750220,6.916906578609000,-10.1548811515,-3.5563691614166700
mp-1079111,EuTiO3,"['icsd-187116', 'icsd-187112']",Tetragonal,I4/mcm,140.0,4/mmm,10.0,3.0,118.31253652456500,6.956660393444920,-10.164019363,-3.5655073729166700
mp-1178346,EuTmO3,,Orthorhombic,Pnma,62.0,mmm,20.0,3.0,287.91151356357500,8.510488417104970,-9.45700875,-3.5424280785833300
mp-1184353,EuTmO3,,Cubic,Pm-3m,221.0,m-3m,5.0,3.0,77.77437689449800,7.876204539246210,-9.106493704,-3.191913032583330
mp-1213318,EuUO3,,Orthorhombic,Pnma,62.0,mmm,20.0,3.0,313.7224264316140,9.273182759053240,-10.778753366,-3.50105777725
mp-756315,EuVO3,,Cubic,Pm-3m,221.0,m-3m,5.0,3.0,56.99431798498430,7.310121614478360,-9.772729818,-2.9365350172500000
mp-1178351,EuVO3,,Orthorhombic,Pnma,62.0,mmm,20.0,3.0,227.9156307793320,7.312098681075080,-9.8038389225,-2.967644121750000
mp-1184400,EuWO3,,Cubic,Pm-3m,221.0,m-3m,5.0,3.0,68.92906911488410,9.246005424573590,-10.021163390000000,-2.410123757250000
mp-1106293,EuZrO3,"['icsd-192313', 'icsd-182342', 'icsd-174198', 'icsd-160941']",Orthorhombic,Pnma,62.0,mmm,20.0,3.0,274.21787904044100,7.053166080151790,-10.3761299985,-3.6471762857500000
mp-1178354,EuZrO3,,Cubic,P2_13,198.0,23,40.0,3.0,585.7820910571170,6.603493935872540,-10.291737049250000,-3.5627833365
mp-771055,EuZrO3,,Cubic,Pm-3m,221.0,m-3m,5.0,3.0,73.94695196343140,6.538823412138970,-10.282810812,-3.55385709925
mp-1189927,EuZrS3,['icsd-631644'],Orthorhombic,Pnma,62.0,mmm,20.0,3.0,453.9792656740200,4.965501930606430,-8.331561390000000,-2.0887509838750000
mp-1106192,EuZrSe3,['icsd-66694'],Orthorhombic,Pnma,62.0,mmm,20.0,3.0,512.214193101151,6.225299332672770,-7.7314218830000000,-1.872934510406250
mp-1184234,FeAgO3,,Cubic,Pm-3m,221.0,m-3m,5.0,3.0,57.61912852121190,6.101360078973730,-5.926390778,-0.6978621085833330
mp-1184215,FeAsO3,,Cubic,Pm-3m,221.0,m-3m,5.0,3.0,54.84869713950590,5.412087243894190,-6.48276029,-0.8889191402500000
mp-1193035,FeBiO3,"['icsd-164223', 'icsd-164224']",Monoclinic,C2/m,12.0,2/m,30.0,3.0,379.3144417492890,8.216757680391030,-7.058785730000000,-1.628670435250000
mp-655631,FeBiO3,['icsd-162264'],Trigonal,R3,146.0,3,5.0,3.0,128.43770899214800,4.044418207321100,-6.6749197460000000,-1.2448044512500000
mp-654759,FeBiO3,['icsd-162264'],Trigonal,R3,146.0,3,5.0,3.0,119.2804837913780,4.354910310918770,-6.52657535,-1.0964600552500000
mp-1181635,FeBiO3,,Tetragonal,P4/mmm,123.0,4/mmm,5.0,3.0,110.06483901965500,4.719543619753910,-5.012193886,0.41792140875
mp-1181670,FeBiO3,,Monoclinic,Cc,9.0,m,10.0,3.0,517.8814859665490,2.006079857382680,-5.417101346000000,0.01301394874999960
mp-1181856,FeBiO3,,Monoclinic,Cm,8.0,m,5.0,3.0,109.19388191578300,4.757187853758020,-6.699512562000000,-1.269397267250000
mp-1069079,FeBiO3,"['icsd-188466', 'icsd-188467']",Tetragonal,P4mm,99.0,4mm,10.0,3.0,137.3487563902950,7.564040948115280,-7.088385497,-1.6582702022500000
mp-555351,FeBiO3,,Orthorhombic,Cmcm,63.0,mmm,10.0,3.0,122.78943566766000,8.460920207507170,-6.859807798,-1.4296925032500000
mp-547069,FeBiO3,"['icsd-20372', 'icsd-28622', 'icsd-20288']",Cubic,Pm-3m,221.0,4/mmm,10.0,3.0,122.78943566766000,8.460920207507170,-6.859884236000000,-1.4297689412500000
mp-1182718,FeBiO3,,Monoclinic,Cc,9.0,m,10.0,3.0,2832.201859475580,0.36682117626364100,-3.70158609,1.72852920475
mp-22949,FeBiO3,"['icsd-237026', 'icsd-20618', 'icsd-196250', 'icsd-196249', 'icsd-28027', 'icsd-196251', 'icsd-22342', 'icsd-196252']",Trigonal,R3m,160.0,3m,10.0,3.0,133.6500252449510,7.773373896524190,-7.08161758,-1.6515022852500000
mp-1181394,FeBiO3,['icsd-162834'],Monoclinic,P2_1/m,11.0,2/m,20.0,3.0,246.29162882070000,8.436434664738290,-6.8585577465,-1.42844245175
mp-23501,FeBiO3,"['icsd-180497', 'icsd-245827', 'icsd-180498', 'icsd-196245', 'icsd-186583', 'icsd-194665', 'icsd-180506', 'icsd-181984', 'icsd-15299', 'icsd-192509', 'icsd-417309', 'icsd-158760', 'icsd-75324', 'icsd-191991', 'icsd-191940', 'icsd-157424', 'icsd-291449', 'icsd-186955', 'icsd-239770', 'icsd-180502', 'icsd-260119', 'icsd-192511', 'icsd-160918', 'icsd-417304', 'icsd-192992', 'icsd-185164', 'icsd-180504', 'icsd-181982', 'icsd-180503', 'icsd-109370', 'icsd-97591', 'icsd-163688', 'icsd-417307', 'icsd-246424', 'icsd-189037', 'icsd-180496', 'icsd-237080', 'icsd-193415', 'icsd-417308', 'icsd-417312', 'icsd-417303', 'icsd-194663', 'icsd-189682', 'icsd-187330', 'icsd-180128', 'icsd-188396', 'icsd-237368', 'icsd-189715', 'icsd-417305', 'icsd-168292', 'icsd-186677', 'icsd-260118', 'icsd-291450', 'icsd-181983', 'icsd-417310', 'icsd-163687', 'icsd-184771', 'icsd-51664', 'icsd-196302', 'icsd-180499', 'icsd-247765', 'icsd-180500', 'icsd-168740', 'icsd-193688', 'icsd-190940', 'icsd-180501', 'icsd-417311', 'icsd-237367', 'icsd-180505', 'icsd-186964', 'icsd-181403', 'icsd-180495', 'icsd-428380', 'icsd-417306', 'icsd-238724', 'icsd-168319', 'icsd-154394', 'icsd-169801']",Trigonal,R3c,161.0,3m,10.0,3.0,125.36629858388700,8.287008783415020,-7.113564488,-1.68344919325