nsites,nelements,formula_pretty,volume,density,crystal_system,symbol,number,point_group,symprec,version,material_id,energy_per_atom,formation_energy_per_atom,e_total,e_electronic,icsd
10.0,3.0,TbMgSe3,289.8299134217002,4.8139244167180415,Monoclinic,C2/m,12.0,2/m,0.1,1.16.2,mp-1237963,-4.738442848,-1.3939667314062505,,,
30.0,3.0,TbMgSe3,802.3379108748617,5.216826768392377,Trigonal,R-3,148.0,-3,0.1,1.16.2,mp-1232347,-4.847674414333334,-1.5031982977395841,,,
30.0,3.0,DyMgS3,699.9495648052988,4.0282835747902945,Trigonal,R-3,148.0,-3,0.1,1.16.2,mp-1232195,-5.359150817333333,-1.6358675192083334,,,
10.0,3.0,DyMgS3,259.9485633842165,3.6155810959664123,Monoclinic,C2/m,12.0,2/m,0.1,1.16.2,mp-1232163,-5.279874477,-1.556591178875,,,
10.0,3.0,DyMgSe3,288.02905750474,4.88523970829466,Monoclinic,C2/m,12.0,2/m,0.1,1.16.2,mp-1238023,-4.771654079,-1.4326938144062502,,,
20.0,3.0,DyMgSe3,587.665754474099,4.788745909225373,Monoclinic,C2/m,12.0,2/m,0.1,1.16.2,mp-1232192,-4.7245185855,-1.38555832090625,,,
30.0,3.0,DyMgSe3,799.4423552836778,5.280271852867527,Trigonal,R-3,148.0,-3,0.1,1.16.2,mp-1232257,-4.844564725666667,-1.505604461072917,,,
30.0,3.0,HoMgS3,689.2990172597547,4.125653905932058,Trigonal,R-3,148.0,-3,0.1,1.16.2,mp-1232153,-5.357413702333333,-1.639005998208333,,,
10.0,3.0,HoMgS3,252.61578467861935,3.7524828288551086,Monoclinic,C2/m,12.0,2/m,0.1,1.16.2,mp-1232139,-5.23454461,-1.5161369058750005,,,
10.0,3.0,HoMgSe3,287.6378925393125,4.919943818876733,Monoclinic,C2/m,12.0,2/m,0.1,1.16.2,mp-1232140,-4.727275368,-1.39319069740625,,,
30.0,3.0,HoMgSe3,792.6828548576237,5.35584539062991,Trigonal,R-3,148.0,-3,0.1,1.16.2,mp-1232172,-4.843241417333333,-1.5091567467395834,,,
10.0,3.0,ErMgS3,251.4507872746821,3.8006248971793237,Monoclinic,C2/m,12.0,2/m,0.1,1.16.2,mp-1232164,-5.23265149,-1.517181797875,,,
10.0,3.0,ErMgSe3,287.22705770763497,4.953906540201688,Monoclinic,C2/m,12.0,2/m,0.1,1.16.2,mp-1232145,-4.721561170999999,-1.3904145124062495,,,
30.0,3.0,ErMgSe3,785.1567335028349,5.436733606114847,Trigonal,R-3,148.0,-3,0.1,1.16.2,mp-1232210,-4.836362883333334,-1.5052162247395837,,,
20.0,3.0,TmMgS3,508.5283680800948,3.7804523254428135,Monoclinic,C2/m,12.0,2/m,0.1,1.16.2,mp-1232191,-5.2532537855,-1.5561607707083334,,,
30.0,3.0,TmMgS3,679.5347604872387,4.243639980131971,Trigonal,R-3,148.0,-3,0.1,1.16.2,mp-1232251,-5.343182042333334,-1.6460890275416669,,,
10.0,3.0,TmMgS3,250.64586918426204,3.835026800798248,Monoclinic,C2/m,12.0,2/m,0.1,1.16.2,mp-1238772,-5.217558768,-1.5204657532083332,,,
10.0,3.0,TmMgSe3,284.98460758459646,5.012409319602381,Monoclinic,C2/m,12.0,2/m,0.1,1.16.2,mp-1232151,-4.70163947,-1.388869488739583,,,
30.0,3.0,TmMgSe3,781.9479858337598,5.480388192868671,Trigonal,R-3,148.0,-3,0.1,1.16.2,mp-1232198,-4.820539726000001,-1.5077697447395835,,,
5.0,3.0,YbMgO3,58.70979239693698,6.939250705746186,Cubic,Pm-3m,221.0,m-3m,0.1,1.16.2,mp-972160,-5.951151506,-2.35516061325,,,
20.0,3.0,YbMgS3,518.6594002397553,3.759188688256243,Monoclinic,C2/m,12.0,2/m,0.1,1.16.2,mp-1232165,-4.458950698000001,-1.3491031118750005,,,
10.0,3.0,YbMgS3,214.14233244396954,4.5524360554660666,Trigonal,R-3,148.0,-3,0.1,1.16.2,mp-1232238,-4.405006483,-1.2951588968750005,,,
20.0,3.0,YbMgS3,422.64860974244516,4.613143177324522,Monoclinic,C2/m,12.0,2/m,0.1,1.16.2,mp-1237978,-4.4830388235,-1.3731912373750004,,,
30.0,3.0,YbMgSe3,766.8950824743746,5.641300297829033,Trigonal,R-3,148.0,-3,0.1,1.16.2,mp-1232390,-3.971087465333333,-1.2455629127395829,,,
20.0,3.0,YbMgSe3,593.3294706945785,4.861026541292775,Monoclinic,C2/m,12.0,2/m,0.1,1.16.2,mp-1232146,-3.9597626480000003,-1.2342380954062502,,,
10.0,3.0,YbMgSe3,248.61226440915436,5.800579290872946,Monoclinic,C2/m,12.0,2/m,0.1,1.16.2,mp-1237340,-4.048123407,-1.32259885440625,,,
10.0,3.0,LuMgSe3,282.05813354481273,5.135447972186602,Monoclinic,C2/m,12.0,2/m,0.1,1.16.2,mp-1237926,-4.701769016,-1.3799760154062497,,,
20.0,3.0,LuMgSe3,538.4867914860697,5.379871494912678,Monoclinic,C2/m,12.0,2/m,0.1,1.16.2,mp-1232147,-4.7352018205,-1.4134088199062496,,,
5.0,3.0,HfMgO3,67.541266847953,6.165888288342769,Cubic,Pm-3m,221.0,m-3m,0.1,1.16.2,mp-1016825,-8.324014238,-3.0445071952499996,,,
20.0,3.0,MgWO3,227.32519104929563,7.484182255044539,Orthorhombic,Pnma,62.0,mmm,0.1,1.16.2,mp-1326513,-8.259686503000001,-2.3799912202500004,,,
5.0,3.0,MgWO3,68.50902686479888,6.208463463994726,Monoclinic,Cm,8.0,m,0.1,1.16.2,mp-1413707,-7.943855864000001,-2.0641605812500012,,,
5.0,3.0,MgReO3,60.35474831531324,7.112386319166634,Cubic,Pm-3m,221.0,m-3m,0.1,1.16.2,mp-1185941,-7.510970314,-1.7339956402499994,,,
5.0,3.0,MgOsO3,60.0879244515128,7.25514550317498,Cubic,Pm-3m,221.0,m-3m,0.1,1.16.2,mp-1016843,-6.9130522459999995,-1.3795095232499996,,,
5.0,3.0,MgIrO3,60.29937371610635,7.284422688581256,Cubic,Pm-3m,221.0,m-3m,0.1,1.16.2,mp-1016826,-6.250591468,-1.1948353952499993,,,
5.0,3.0,MgTlO3,62.506207052787076,7.350449885126004,Cubic,Pm-3m,221.0,m-3m,0.1,1.16.2,mp-1185613,-4.965142634,-1.204544767916667,,,
5.0,3.0,MgTlF3,67.74716609914387,7.002339074670033,Cubic,Pm-3m,221.0,m-3m,0.1,1.16.2,mp-998739,-5.024689226,-3.0852172061666665,15.211937753199152,3.114163333550698,
20.0,3.0,MgTlCl3,491.4983577166352,4.527861565141662,Orthorhombic,Pnma,62.0,mmm,0.1,1.16.2,mp-1210617,-3.7723176609999998,-1.8706110256666661,,,
5.0,3.0,MgPbO3,63.068935851015254,7.359026699548187,Cubic,Pm-3m,221.0,m-3m,0.1,1.16.2,mp-976722,-5.531777046,-1.5011783952499997,,,
5.0,3.0,MgBiO3,60.95774362961122,7.662396584623495,Cubic,Pm-3m,221.0,m-3m,0.1,1.16.2,mp-1185847,-5.71506759,-1.6589005272500004,,,
20.0,3.0,MgBiO3,267.46913094087574,6.98521590062872,Orthorhombic,Pnma,62.0,mmm,0.1,1.16.2,mp-1376863,-6.0475375975,-1.99137053475,,,
5.0,3.0,AcMgO3,64.78375373225691,7.671748358584634,Cubic,Pm-3m,221.0,m-3m,0.1,1.16.2,mp-1183142,-7.120950934,-3.0086466957499995,,,
5.0,3.0,MgUO3,55.435344139022334,9.295849070280466,Cubic,Pm-3m,221.0,m-3m,0.1,1.16.2,mp-1185614,-8.395218106,-2.84886686725,,,
5.0,3.0,PuMgO3,56.08996317733968,9.364132025367192,Cubic,Pm-3m,221.0,m-3m,0.1,1.16.2,mp-1186787,-8.940718497999999,-2.79908159525,,,
15.0,2.0,Al2O3,313.18888095049596,1.6218074239148406,Trigonal,P321,150.0,32,0.1,1.16.2,mp-985587,-7.683499710666667,-3.217256151916667,,,
100.0,2.0,Al2O3,1082.9730507934323,3.1267755729837896,Triclinic,P1,1.0,1,0.1,1.16.2,mp-1244992,-7.6869888787,-3.2207453199500002,,,
30.0,2.0,Al2O3,498.39821677748864,2.038257903478267,Triclinic,P1,1.0,1,0.1,1.16.2,mp-684990,-7.698715239666667,-3.232471680916667,,,
100.0,2.0,Al2O3,1047.8997352443585,3.231429083843608,Triclinic,P1,1.0,1,0.1,1.16.2,mp-1245251,-7.684821382,-3.21857782325,,,
5.0,2.0,Al2O3,59.72839322865999,2.8346766909140633,Trigonal,P-3m1,164.0,-3m,0.1,1.16.2,mp-1228448,-7.65073673,-3.1844931712499998,,,
100.0,2.0,Al2O3,1124.3693870275313,3.011655885058103,Triclinic,P1,1.0,1,0.1,1.16.2,mp-1244868,-7.6779150236,-3.2116714648499998,,,
100.0,2.0,Al2O3,1111.3827131260255,3.046847536341567,Triclinic,P1,1.0,1,0.1,1.16.2,mp-1245173,-7.7396072967,-3.27336373795,,,
100.0,2.0,Al2O3,1136.6723239330026,2.9790587930424755,Triclinic,P1,1.0,1,0.1,1.16.2,mp-1245196,-7.661534608100001,-3.1952910493500006,,,
10.0,2.0,Al2O3,118.52959256780662,2.8568508572941416,Monoclinic,C2/c,15.0,2/m,0.1,1.16.2,mp-1182923,-7.797637266,-3.3313937072499997,,,
100.0,2.0,Al2O3,1136.475699946891,2.9795742060995045,Triclinic,P1,1.0,1,0.1,1.16.2,mp-1244928,-7.6599108953,-3.193667336550001,,,
100.0,2.0,Al2O3,1114.9533662979734,3.0370899660709796,Triclinic,P1,1.0,1,0.1,1.16.2,mp-1244878,-7.6886207742,-3.22237721545,,,
100.0,2.0,Al2O3,1051.1868490216198,3.2213242437082585,Triclinic,P1,1.0,1,0.1,1.16.2,mp-1244898,-7.663849145,-3.1976055862500004,,,
100.0,2.0,Al2O3,1100.106218395176,3.078078848022886,Triclinic,P1,1.0,1,0.1,1.16.2,mp-1245234,-7.6843906137,-3.21814705495,,,
40.0,2.0,Al2O3,358.10162617765377,3.78240525469241,Orthorhombic,Pna2_1,33.0,mm2,0.1,1.16.2,mp-2254,-7.87667090225,-3.4104273434999994,,,"['icsd-94485', 'icsd-161790', 'icsd-247304', 'icsd-84375']"
5.0,2.0,Al2O3,44.99763256902408,3.7626575978484613,Trigonal,R3m,160.0,3m,0.1,1.16.2,mp-755483,-7.802557562,-3.33631400325,13.922143216666429,3.280323796666668,
100.0,2.0,Al2O3,1114.6243669424634,3.0379864121483284,Triclinic,P1,1.0,1,0.1,1.16.2,mp-1244982,-7.6996426975,-3.23339913875,,,
100.0,2.0,Al2O3,1118.831940038956,3.026561506013793,Triclinic,P1,1.0,1,0.1,1.16.2,mp-1245037,-7.7017427954,-3.2354992366500004,,,
80.0,2.0,Al2O3,757.854266079925,3.5745275396402074,Monoclinic,P2/c,13.0,2/m,0.1,1.16.2,mp-759943,-7.858422626125,-3.3921790673749994,,,
25.0,2.0,Al2O3,242.11840645052803,3.4964438795285693,Triclinic,P1,1.0,1,0.1,1.16.2,mp-752826,-7.8148155812,-3.3485720224500004,8.8068489,3.064075573333333,
20.0,2.0,Al2O3,178.3959204053059,3.796290491091211,Trigonal,P-31c,163.0,-3m,0.1,1.16.2,mp-755175,-7.8215461545,-3.3553025957499996,,,
100.0,2.0,Al2O3,1114.5708521324113,3.0381322774968402,Triclinic,P1,1.0,1,0.1,1.16.2,mp-1245254,-7.6551440356,-3.18890047685,,,
100.0,2.0,Al2O3,1125.1431299097571,3.0095848176153646,Triclinic,P1,1.0,1,0.1,1.16.2,mp-1245036,-7.6624379091,-3.1961943503500003,,,
100.0,2.0,Al2O3,1156.5814968503203,2.9277778441399933,Triclinic,P1,1.0,1,0.1,1.16.2,mp-1245052,-7.7017768356,-3.23553327685,,,
100.0,2.0,Al2O3,1113.1762458898363,3.0419385015836458,Triclinic,P1,1.0,1,0.1,1.16.2,mp-1245262,-7.7333581039,-3.26711454515,,,
40.0,2.0,Al2O3,366.87533707998483,3.6919501958043983,Monoclinic,C2/m,12.0,2/m,0.1,1.16.2,mp-1245211,-7.851839416,-3.3855958572500002,,,
40.0,2.0,Al2O3,349.56286689707736,3.874797928599948,Cubic,Ia-3,206.0,m-3,0.1,1.16.2,mp-776475,-7.86379330625,-3.3975497475,,,
40.0,2.0,Al2O3,397.8452021172188,3.4045539957754145,Triclinic,P1,1.0,1,0.1,1.16.2,mp-1247846,-7.6790898709999995,-3.2128463122499995,,,
100.0,2.0,Al2O3,1109.44566733418,3.052167204868324,Triclinic,P1,1.0,1,0.1,1.16.2,mp-1244970,-7.6528563689,-3.1866128101499998,,,
40.0,2.0,Al2O3,412.4669088546351,3.283864580384104,Triclinic,P1,1.0,1,0.1,1.16.2,mp-1359927,-6.9542894314999995,-2.48804587275,,,
100.0,2.0,Al2O3,1071.7336766070346,3.1595663692690295,Triclinic,P1,1.0,1,0.1,1.16.2,mp-1245056,-7.7268811968,-3.26063763805,,,
100.0,2.0,Al2O3,1102.5406034192827,3.0712825186837143,Triclinic,P1,1.0,1,0.1,1.16.2,mp-1245065,-7.6761492546,-3.20990569585,,,
100.0,2.0,Al2O3,1104.5286614288063,3.0657544703640984,Triclinic,P1,1.0,1,0.1,1.16.2,mp-1244874,-7.654094185,-3.1878506262500004,,,
100.0,2.0,Al2O3,1098.2250482308054,3.0833513466804323,Triclinic,P1,1.0,1,0.1,1.16.2,mp-1244967,-7.721948521300001,-3.2557049625500007,,,
20.0,2.0,Al2O3,209.7672600295253,3.2285435591274045,Monoclinic,P2_1/c,14.0,2/m,0.1,1.16.2,mp-754531,-7.817103525,-3.3508599662500003,,,
40.0,2.0,Al2O3,366.5495259773137,3.6952318215576847,Monoclinic,C2/c,15.0,2/m,0.1,1.16.2,mp-32570,-7.861147509,-3.39490395025,9.076372623333333,3.1736480933333335,
100.0,2.0,Al2O3,1140.135460469936,2.970009967083141,Triclinic,P1,1.0,1,0.1,1.16.2,mp-1245279,-7.6999864039,-3.23374284515,,,
10.0,2.0,Al2O3,109.42168181400928,3.0946459835779083,Monoclinic,C2/m,12.0,2/m,0.1,1.16.2,mp-754812,-7.840723365,-3.3744798062499997,7.699097199865815,2.8261268123229004,
40.0,2.0,Al2O3,379.0585417279813,3.573288353808568,Triclinic,P1,1.0,1,0.1,1.16.2,mp-685036,-7.782766648250001,-3.316523089500001,,,
10.0,2.0,Al2O3,129.25945435990985,2.6197029054385976,Monoclinic,P2/m,10.0,2/m,0.1,1.16.2,mp-2637304,-7.110377892000001,-2.644134333250001,,,
100.0,2.0,Al2O3,1128.236920771164,3.001332095306824,Triclinic,P1,1.0,1,0.1,1.16.2,mp-1245191,-7.7157683694,-3.24952481065,,,
40.0,2.0,Al2O3,389.507244986848,3.4774333212055915,Triclinic,P1,1.0,1,0.1,1.16.2,mp-684677,-7.732398451500001,-3.266154892750001,,,
100.0,2.0,Al2O3,1114.6689629245575,3.037864867553346,Triclinic,P1,1.0,1,0.1,1.16.2,mp-1244981,-7.4591467548,-2.9929031960500003,,,
100.0,2.0,Al2O3,1120.508085021637,3.0220341349480297,Triclinic,P1,1.0,1,0.1,1.16.2,mp-1244954,-7.6993844754000005,-3.233140916650001,,,
100.0,2.0,Al2O3,1128.9183340103832,2.99952049621819,Triclinic,P1,1.0,1,0.1,1.16.2,mp-1245080,-7.7165624479,-3.250318889150001,,,
20.0,2.0,Al2O3,171.3207612152271,3.9530686851975863,Orthorhombic,Pbcn,60.0,mmm,0.1,1.16.2,mp-1938,-7.800202029499999,-3.3339584707499994,,,"['icsd-169723', 'icsd-151590', 'icsd-161061', 'icsd-169721']"
100.0,2.0,Al2O3,1128.8524934262412,2.999695443948533,Triclinic,P1,1.0,1,0.1,1.16.2,mp-1245081,-7.6924346758,-3.2261911170500004,,,
100.0,2.0,Al2O3,1076.9651172438048,3.1442185333604087,Triclinic,P1,1.0,1,0.1,1.16.2,mp-1245063,-7.689603780700001,-3.2233602219500006,,,
25.0,2.0,Al2O3,331.0604458466793,2.557096237184478,Monoclinic,Cm,8.0,m,0.1,1.16.2,mp-1247845,-6.799748552800001,-2.3335049940500006,,,
100.0,2.0,Al2O3,1078.766657223526,3.1389676893943856,Triclinic,P1,1.0,1,0.1,1.16.2,mp-1244940,-7.7043931799,-3.2381496211500007,,,
100.0,2.0,Al2O3,1126.668775461388,3.0055094764066137,Triclinic,P1,1.0,1,0.1,1.16.2,mp-1245043,-7.671736052800001,-3.2054924940500005,,,
15.0,2.0,Al2O3,201.80699255464478,2.5169199827184334,Hexagonal,P-6m2,187.0,-6m2,0.1,1.16.2,mp-2352722,-7.696309936666667,-3.230066377916667,,,
80.0,2.0,Al2O3,761.6776924534049,3.5565843295354598,Monoclinic,Cm,8.0,m,0.1,1.16.2,mp-32591,-7.836460844125,-3.370217285375,,,
100.0,2.0,Al2O3,1102.5561602663104,3.0712391835013046,Triclinic,P1,1.0,1,0.1,1.16.2,mp-1245023,-7.664925150600001,-3.1986815918500007,,,
10.0,2.0,Al2O3,84.33822462752025,4.015040269552565,Orthorhombic,Cmcm,63.0,mmm,0.1,1.16.2,mp-642363,-7.613108317,-3.1468647582499996,,,['icsd-161062']
100.0,2.0,Al2O3,1077.8172132443224,3.141732790876333,Triclinic,P1,1.0,1,0.1,1.16.2,mp-1244887,-7.675187789300001,-3.2089442305500007,,,
100.0,2.0,Al2O3,1126.8915111818658,3.0049154224875028,Triclinic,P1,1.0,1,0.1,1.16.2,mp-1245265,-7.6621942962,-3.1959507374500005,,,
40.0,2.0,Al2O3,439.3989799077363,3.0825867480453994,Triclinic,P1,1.0,1,0.1,1.16.2,mp-1247896,-7.698856413750001,-3.2326128550000006,,,
100.0,2.0,Al2O3,1105.0686711922342,3.064256339623967,Triclinic,P1,1.0,1,0.1,1.16.2,mp-1245024,-7.680864143800001,-3.214620585050001,,,
40.0,2.0,Al2O3,335.2503725192363,4.040220633880238,Orthorhombic,Pbca,61.0,mmm,0.1,1.16.2,mp-776490,-7.845748020499999,-3.37950446175,,,
100.0,2.0,Al2O3,1085.316364898619,3.1200245301165688,Triclinic,P1,1.0,1,0.1,1.16.2,mp-1244930,-7.7114607658,-3.24521720705,,,
40.0,2.0,Al2O3,412.4669088546351,3.283864580384104,Triclinic,P1,1.0,1,0.1,1.16.2,mp-723985,-5.332559293,-0.86631573425,,,
100.0,2.0,Al2O3,1094.49615112824,3.093856180243324,Triclinic,P1,1.0,1,0.1,1.16.2,mp-1245008,-7.6736938589,-3.20745030015,,,
100.0,2.0,Al2O3,1090.1160286086576,3.1062873974457066,Triclinic,P1,1.0,1,0.1,1.16.2,mp-1245111,-7.7328607481,-3.2666171893500007,,,
100.0,2.0,Al2O3,1052.0673282263215,3.2186283050244024,Triclinic,P1,1.0,1,0.1,1.16.2,mp-1245055,-7.676632980100001,-3.210389421350001,,,
10.0,2.0,Al2O3,93.37905823230228,3.62630952327302,Monoclinic,C2/m,12.0,2/m,0.1,1.16.2,mp-7048,-7.884176721,-3.41793316225,8.979218503318556,3.1635806566666957,['icsd-82504']
30.0,2.0,Al2O3,279.7262822924992,3.6316362413308747,Monoclinic,P2_1/m,11.0,2/m,0.1,1.16.2,mp-782035,-7.803480010333334,-3.337236451583334,,,
80.0,2.0,Al2O3,882.3379517020711,3.070219228256903,Triclinic,P1,1.0,1,0.1,1.16.2,mp-1247839,-7.352222749250001,-2.885979190500001,,,
100.0,2.0,Al2O3,1123.2288317033315,3.014713997579264,Triclinic,P1,1.0,1,0.1,1.16.2,mp-1244997,-7.6226904228,-3.1564468640500003,,,
20.0,2.0,Al2O3,190.13564294708067,3.5618925825107937,Monoclinic,P2_1/c,14.0,2/m,0.1,1.16.2,mp-755066,-7.804815725500001,-3.3385721667500006,,,
100.0,2.0,Al2O3,1084.36953728935,3.122748809308417,Triclinic,P1,1.0,1,0.1,1.16.2,mp-1244909,-7.7220958222,-3.2558522634500005,,,
30.0,2.0,Al2O3,346.7178585090572,2.9299445629785867,Monoclinic,Pm,6.0,m,0.1,1.16.2,mp-1247914,-7.800680143,-3.3344365842500006,,,
100.0,2.0,Al2O3,1118.1848324852942,3.028313015026673,Triclinic,P1,1.0,1,0.1,1.16.2,mp-1244937,-7.679536580300001,-3.2132930215500006,,,
100.0,2.0,Al2O3,1163.9149690889826,2.9093308114003276,Triclinic,P1,1.0,1,0.1,1.16.2,mp-1245237,-7.6750981439,-3.2088545851499997,,,
10.0,2.0,Al2O3,98.21229184532196,3.44785119845661,Cubic,Pn-3m,224.0,m-3m,0.1,1.16.2,mp-1105018,-7.022884566,-2.5566410072500005,,,
10.0,2.0,Al2O3,137.65716153625908,2.459889223074459,Orthorhombic,Pnnm,58.0,mmm,0.1,1.16.2,mp-1247899,-7.7976324,-3.331388841250001,,,
40.0,2.0,Al2O3,388.93471519816154,3.4825522629887815,Triclinic,P1,1.0,1,0.1,1.16.2,mp-684591,-7.768171730250001,-3.3019281715000006,,,
10.0,2.0,Al2O3,124.7089447312713,2.7152933486185846,Triclinic,P-1,2.0,-1,0.1,1.16.2,mp-638765,-7.093593375,-2.6273498162500006,,,
100.0,2.0,Al2O3,1125.240279607285,3.009324979552318,Triclinic,P1,1.0,1,0.1,1.16.2,mp-1244918,-7.6071889487,-3.1409453899499997,,,
100.0,2.0,Al2O3,1085.1543452159399,3.1204903674295275,Triclinic,P1,1.0,1,0.1,1.16.2,mp-1244892,-7.6470464927,-3.18080293395,,,
100.0,2.0,Al2O3,1115.909704684108,3.0344871697116456,Triclinic,P1,1.0,1,0.1,1.16.2,mp-1245323,-7.476701858,-3.01045829925,,,
100.0,2.0,Al2O3,1122.8177175249175,3.0158178202647483,Triclinic,P1,1.0,1,0.1,1.16.2,mp-1245104,-7.627685575,-3.1614420162500005,,,
10.0,2.0,Al2O3,87.42001939959368,3.8734991191690074,Trigonal,R-3c,167.0,-3m,0.1,1.16.2,mp-1143,-7.893557943,-3.4273143842500007,9.706237702841708,3.2185079433333357,"['icsd-56085', 'icsd-92630', 'icsd-30025', 'icsd-92631', 'icsd-68591', 'icsd-9775', 'icsd-30026', 'icsd-64713', 'icsd-75559', 'icsd-9770', 'icsd-85137', 'icsd-608996', 'icsd-73724', 'icsd-88029', 'icsd-608995', 'icsd-10425', 'icsd-160604', 'icsd-26790', 'icsd-30027', 'icsd-160606', 'icsd-31546', 'icsd-9772', 'icsd-30028', 'icsd-169720', 'icsd-51687', 'icsd-608997', 'icsd-160605', 'icsd-52648', 'icsd-88028', 'icsd-75560', 'icsd-609004', 'icsd-77810', 'icsd-60419', 'icsd-24851', 'icsd-99783', 'icsd-88027', 'icsd-600672', 'icsd-31547', 'icsd-24005', 'icsd-33639', 'icsd-151589', 'icsd-75479', 'icsd-161060', 'icsd-9773', 'icsd-31545', 'icsd-52044', 'icsd-608993', 'icsd-608998', 'icsd-89665', 'icsd-9774', 'icsd-9771', 'icsd-30029', 'icsd-52025', 'icsd-63647', 'icsd-10426', 'icsd-73725', 'icsd-52024', 'icsd-43732', 'icsd-608994', 'icsd-31548', 'icsd-92628', 'icsd-609001', 'icsd-89663', 'icsd-30030', 'icsd-92629', 'icsd-63648', 'icsd-89662', 'icsd-73076', 'icsd-93096', 'icsd-25778', 'icsd-164617', 'icsd-52647', 'icsd-89664', 'icsd-30024', 'icsd-160607']"
10.0,2.0,Al2O3,88.95641731038351,3.8065985387041636,Trigonal,R-3,148.0,-3,0.1,1.16.2,mp-754624,-7.828062417,-3.3618188582499995,,,
100.0,2.0,Al2O3,1114.2981284672585,3.0388758581856794,Triclinic,P1,1.0,1,0.1,1.16.2,mp-1244994,-7.654719796399999,-3.1884762376499998,,,
100.0,2.0,Al2O3,1084.151967380332,3.1233754891418433,Triclinic,P1,1.0,1,0.1,1.16.2,mp-1244947,-7.7250083437,-3.2587647849500003,,,
100.0,2.0,Al2O3,1119.3211242620037,3.0252387880674116,Triclinic,P1,1.0,1,0.1,1.16.2,mp-1245183,-7.6933739283,-3.22713036955,,,
45.0,2.0,Al2O3,477.8197862026635,3.1890603960736366,Triclinic,P1,1.0,1,0.1,1.16.2,mp-1247880,-7.7938238879999995,-3.32758032925,,,
40.0,2.0,Al2O3,412.258965700645,3.2855209595412216,Triclinic,P1,1.0,1,0.1,1.16.2,mp-684713,-7.690615151,-3.2243715922500003,,,
10.0,2.0,Al2O3,131.07404481085925,2.5834357109425943,Orthorhombic,Cmc2_1,36.0,mm2,0.1,1.16.2,mp-754401,-7.847957841,-3.3817142822500004,7.760309173333333,2.6265662966666667,
30.0,2.0,Al2S3,906.9227954121047,1.6496003052354904,Triclinic,P1,1.0,1,0.1,1.16.2,mp-643430,-4.792525828,-0.8124255758750001,,,"['icsd-609253', 'icsd-73220']"
30.0,2.0,Al2S3,637.3056615604384,2.3474765883512467,Hexagonal,P6_1,169.0,6,0.1,1.16.2,mp-2654,-5.338444457333334,-1.3583442052083337,,,
120.0,2.0,Al2S3,2266.233724178345,2.6406104616226203,Trigonal,P3m1,156.0,3m,0.1,1.16.2,mp-684676,-5.201623379,-1.2215231268750002,,,
30.0,2.0,Al2S3,913.3812284911597,1.6379361360515545,Triclinic,P1,1.0,1,0.1,1.16.2,mp-988253,-3.2408882763333335,0.7392119757916665,,,
30.0,2.0,Al2S3,954.5943236796813,1.5672208424306977,Triclinic,P1,1.0,1,0.1,1.16.2,mp-699208,-4.843698973666666,-0.8635987215416667,,,"['icsd-73220', 'icsd-609253']"