material_id,formula_pretty,icsd,crystal_system,symbol,number,point_group,nsites,nelements,volume,density,energy_per_atom,formation_energy_per_atom
mp-1183115,AcAlO3,,Cubic,Pm-3m,221.0,m-3m,5.0,3.0,57.4514132376898,8.728230081866650,-8.232146192,-3.6907827977500000
mp-1183052,AcBO3,,Cubic,Pm-3m,221.0,m-3m,5.0,3.0,51.54812640786060,9.206878605801690,-7.604279514,-2.476152931583330
mp-866101,AcCrO3,,Cubic,Pm-3m,221.0,m-3m,5.0,3.0,61.36284504026080,8.848788046728620,-8.862593228,-3.13973550575
mp-864606,AcCuO3,,Cubic,Pm-3m,221.0,m-3m,5.0,3.0,59.92938665681020,9.380470938074590,-7.035745362,-2.42365579975
mp-861502,AcFeO3,,Cubic,Pm-3m,221.0,m-3m,5.0,3.0,61.79731063258670,8.889999465919500,-8.258555312,-2.77230284175
mp-1183053,AcGaO3,,Cubic,Pm-3m,221.0,m-3m,5.0,3.0,61.455078293307400,9.31449500321555,-7.461883426,-3.06401599325
mp-1183142,AcMgO3,,Cubic,Pm-3m,221.0,m-3m,5.0,3.0,64.78375373225690,7.671748358584630,-7.120950934,-3.0086466957500000
mp-864911,AcMnO3,,Cubic,Pm-3m,221.0,m-3m,5.0,3.0,62.241398829787900,8.802373253340260,-8.599044686,-2.9743933993362100
mp-1183139,AcNiO3,,Cubic,Pm-3m,221.0,m-3m,5.0,3.0,58.35821779959110,9.494942767086060,-7.404515516000000,-2.456239951750000
mp-1183145,AcPdO3,,Cubic,Pm-3m,221.0,m-3m,5.0,3.0,66.68667373916480,9.497547055496380,-7.065943372,-2.2377187817500000
mp-1183152,AcScO3,,Cubic,Pm-3m,221.0,m-3m,5.0,3.0,70.19180130743560,7.569207408829240,-8.888565856,-3.8298238067500000
mp-1183150,AcSiO3,,Cubic,Pm-3m,221.0,m-3m,5.0,3.0,62.5790478372491,8.042345508493090,-7.746321594000000,-2.86900975975
mp-865927,AcTiO3,,Cubic,Pm-3m,221.0,m-3m,5.0,3.0,63.7995700747627,8.403352518165330,-8.979745746,-3.6083991144166700
mp-1183168,AcVO3,,Cubic,Pm-3m,221.0,m-3m,5.0,3.0,62.471313314162800,8.6637462299545,-8.750861914000000,-3.1418324717500000
mp-558950,AgAsO3,['icsd-55074'],Orthorhombic,Pca2_1,29.0,mm2,120.0,3.0,1728.699514830730,5.3205196643791100,-5.71533458975,-1.2489864813333300
mp-1178563,AgAsO3,,Trigonal,R-3,148.0,-3,10.0,3.0,119.28055162319500,6.425733028349930,-5.741099904,-1.2747517955833300
mp-775767,AgAsO3,,Monoclinic,C2/c,15.0,2/m,20.0,3.0,304.7254522248720,5.030528133497360,-5.7038320395,-1.2374839310833300
mp-776165,AgAuO3,,Cubic,Fd-3m,227.0,m-3m,20.0,3.0,273.488677155319,8.569172736555060,-4.5489843810000000,-0.3596835535833330
mp-752678,AgAuO3,,Orthorhombic,Cmcm,63.0,mmm,20.0,3.0,294.29506712515900,7.963340122990180,-4.189676009500000,-0.00037518208333295900
mp-775774,AgBiO3,,Orthorhombic,Cmmm,65.0,mmm,10.0,3.0,154.488213998263,7.843217926395460,-5.340340333,-1.037718079583330
mp-23548,AgBiO3,"['icsd-89432', 'icsd-91777']",Trigonal,R-3,148.0,-3,10.0,3.0,154.63007543874300,7.8360223650541100,-5.318382012,-1.0157597585833300
mp-780275,AgBO3,,Trigonal,R-3c,167.0,-3m,10.0,3.0,109.9353807286680,5.035218550839830,-6.3743721640000000,-1.5039693824166700
mp-985292,AgBO3,,Cubic,Pm-3m,221.0,m-3m,5.0,3.0,42.26372548752630,6.548744367105120,-5.419856482,-0.5494537004166670
mp-1178562,AgBrO3,,Trigonal,R3m,160,3m,5,3,77.2650683135975,5.06704994239951,-4.149789242,-0.304659148583333
mp-776199,AgClO3,,Monoclinic,P2_1/c,14,2/m,20,3,309.045932376099,4.11192388724728,-4.303997147,-0.399765387583333
mp-775761,AgClO3,,Cubic,P2_13,198,23,20,3,291.059723328838,4.36602267417872,-4.32101794,-0.416786180583333
mp-27941,AgClO3,['icsd-30227'],Tetragonal,I4/m,87,4/m,20,3,307.063628115988,4.1384691485306,-4.314317366,-0.410085606583333
mp-1178561,AgClO3,,Trigonal,R3m,160,3m,5,3,76.8440581875313,4.13426028494186,-4.259784518,-0.355552758583333
mp-753176,AgCO3,,Trigonal,R-3c,167.0,-3m,10.0,3.0,113.34598203986200,4.91885954703674,-6.617188799,-1.2369312730833300
mp-891880,AgGeO3,,Orthorhombic,Pbam,55.0,mmm,80.0,3.0,1210.6981013108800,5.014545624641300,-5.799611460375,-1.3404814619583300
mp-891854,AgGeO3,,Orthorhombic,Pmma,51.0,mmm,10.0,3.0,152.23687320929300,4.984913262721490,-5.797279927,-1.3381499285833300
mp-779706,AgGeO3,,Orthorhombic,P2_12_12,18.0,222,20.0,3.0,292.255893683804,5.193309183747750,-5.7934255285,-1.3342955300833300
mp-759939,AgGeO3,,Orthorhombic,Pmma,51.0,mmm,10.0,3.0,113.78514352920600,6.66947885108977,-5.771882732,-1.3127527335833300
mp-779664,AgGeO3,,Orthorhombic,Pmc2_1,26.0,mm2,10.0,3.0,152.22963156576700,4.985150397663500,-5.797829883,-1.3386998845833300
mp-27384,AgIO3,['icsd-14100'],Orthorhombic,Pca2_1,29,mm2,40,3,626.077566461709,5.99992207591981,-4.555235327,-0.726037629583333
mp-1202188,AgIO3,['icsd-188065'],Orthorhombic,Pbca,61,mmm,40,3,589.652032046087,6.37056502496401,-4.544292077,-0.715094379583334
mp-849271,AgIO3,,Orthorhombic,Pnma,62,mmm,20,3,331.97990780951,5.65759632418356,-4.5277654535,-0.698567756083333
mp-1178556,AgPbO3,,Trigonal,R-3,148.0,-3,10.0,3.0,146.41846842959500,8.23510787178762,-5.125327082,-0.8482732405833330
mp-776166,AgPdO3,,Orthorhombic,Cmcm,63.0,mmm,20.0,3.0,267.596321977409,6.5103557570517400,-4.747613204,-0.17711241458333300
mp-18702,AgPO3,"['icsd-15436', 'icsd-261322']",Monoclinic,P2_1/c,14.0,2/m,40.0,3.0,523.544804128728,4.740841826933120,-6.5785070015,-1.9613220727500000
mp-775762,AgPO3,,Monoclinic,P2_1/c,14.0,2/m,20.0,3.0,264.7268375552520,4.6879325281271200,-6.533062173000000,-1.9158772442500000
mp-5470,AgPS3,['icsd-30531'],Monoclinic,C2/m,12.0,2/m,10.0,3.0,222.4638175390570,3.508777848132170,-4.593607009,-0.4625653868750010
mp-776168,AgRuO3,,Cubic,Fd-3m,227.0,m-3m,20.0,3.0,265.5367834644940,6.427025653696130,-6.386093229,-0.9966882935833330
mp-540872,AgSbO3,"['icsd-25541', 'icsd-250794', 'icsd-165169']",Cubic,Fd-3m,227.0,m-3m,20.0,3.0,271.7080679491050,6.786835394315510,-5.783987181,-1.4236625055833300
mp-860791,AgSbO3,,Monoclinic,C2,5.0,2,30.0,3.0,430.8249683273080,6.420372777966920,-5.747215704666670,-1.3868910292500000
mp-677054,AgSbO3,,Triclinic,P1,1.0,1,60.0,3.0,857.9101650285210,6.448360239734790,-5.731120557666670,-1.3707958822500000
mp-545999,AgSbO3,['icsd-245292'],Trigonal,R-3,148.0,-3,10.0,3.0,137.6369853909370,6.698918634552930,-5.790875897,-1.4305512215833300
mp-569052,AgSe3I,['icsd-414116'],Orthorhombic,Pmna,53,mmm,20,3,633.527414051717,4.94499633025991,-3.141949277,-0.183217919739583
mp-755834,AgSnO3,,Orthorhombic,Cmmm,65.0,mmm,10.0,3.0,134.59491336386600,6.7750679066716100,-5.689126443,-1.3526876445833300
mp-1404877,AlAgO3,,Hexagonal,P6_3/mmc,194.0,6/mmm,10.0,3.0,116.48724396800400,5.213036809008490,-5.667360678,-1.3837210845833300
mp-1183169,AlAgO3,,Cubic,Pm-3m,221.0,m-3m,5.0,3.0,52.77775563990640,5.752918850209690,-5.90149902,-1.6178594265833300
mp-1253488,AlAgO3,,Orthorhombic,Pnma,62.0,mmm,20.0,3.0,247.91957719410000,4.898784496633200,-6.0475763135000000,-1.7639367200833300
mp-1343733,AlAgO3,,Orthorhombic,Pnma,62.0,mmm,20.0,3.0,237.67755732530300,5.109883300879150,-6.0240798,-1.740440206583330
mp-1343327,AlAgO3,,Hexagonal,P6_3cm,185.0,6mm,30.0,3.0,343.77477103566000,5.299274482147780,-5.907362490666670,-1.623722897250000
mp-1418444,AlAgO3,,Cubic,Pm-3m,221.0,m-3m,5.0,3.0,64.17906273811800,4.730922084847540,-4.537316028,-0.25367643458333300
mp-1183159,AlAuO3,,Cubic,Pm-3m,221.0,m-3m,5.0,3.0,53.21380497954460,8.486096191787200,-5.773129062000000,-1.4012242692500000
mp-1376082,AlBiO3,,Hexagonal,P6_3cm,185.0,6mm,30.0,3.0,409.82569070936900,6.903328622755920,-6.532072210333330,-2.0468459915833300
mp-23080,AlBiO3,"['icsd-157549', 'icsd-158756']",Cubic,Pm-3m,221.0,m-3m,5.0,3.0,54.31911150734790,8.680681447425110,-6.928135246000000,-2.442909027250000
mp-551918,AlBiO3,"['icsd-171708', 'icsd-185508']",Trigonal,R3c,161.0,3m,10.0,3.0,113.6752137295990,8.296037245622960,-6.9964094160000000,-2.51118319725
mp-1413511,AlBiO3,,Cubic,Pm-3m,221.0,m-3m,5.0,3.0,78.10549111437120,6.037051899615940,-5.3847215860000000,-0.8994953672500000
mp-1344602,AlBiO3,,Orthorhombic,Pnma,62.0,mmm,20.0,3.0,273.8452642962740,6.8874939972276400,-6.8149549075,-2.3297286887500000
mp-1392353,AlBiO3,,Hexagonal,P6_3/mmc,194.0,6/mmm,10.0,3.0,147.97103559945400,6.3732324585311000,-6.184146843,-1.6989206242500000
mp-775763,AlBiO3,,Monoclinic,P2_1/c,14.0,2/m,20.0,3.0,284.0844556688520,6.639249618811860,-6.971450301500000,-2.48622408275
mp-8110,AlBO3,['icsd-30538'],Trigonal,R-3c,167.0,-3m,10.0,3.0,81.46986382228380,3.497216426150520,-8.17212798,-3.1191212330833300
mp-1435808,AlCoO3,,Cubic,Pm-3m,221.0,m-3m,5.0,3.0,50.426713548382500,4.409719414937840,-6.187918972,-1.0491270202500000
mp-1386773,AlCoO3,,Hexagonal,P6_3/mmc,194.0,6/mmm,10.0,3.0,96.91991245037580,4.588688787346290,-7.2293889040000000,-2.0905969522500000
mp-1348445,AlCoO3,,Hexagonal,P6_3cm,185.0,6mm,30.0,3.0,293.4346035604500,4.5468596082602500,-7.247019016666670,-2.1082270649166700
mp-1378752,AlCoO3,,Orthorhombic,Pnma,62.0,mmm,20.0,3.0,171.3532126131810,5.1908605476290300,-7.303829901500000,-2.16503794975
mp-1404938,AlCoO3,,Triclinic,P-1,2.0,-1,10.0,3.0,93.23909210681110,4.7698374735583200,-2.4112463980000000,2.7275455537500000
mp-1248478,AlCoO3,,Triclinic,P1,1.0,1,30.0,3.0,300.83541597823800,4.43500291432238,-7.235144542333330,-2.0963525905833300
mp-776216,AlCoO3,,Triclinic,P-1,2.0,-1,10.0,3.0,93.23907440412560,4.769838379175770,-7.381012709000000,-2.24222075725
mp-1178576,AlCoO3,,Trigonal,R-3,148.0,-3,10.0,3.0,88.02147690236620,5.052577293436310,-7.454490492,-2.3156985402500000
mp-756947,AlCoO3,,Monoclinic,C2/c,15.0,2/m,20.0,3.0,199.73401558336500,4.453275664965530,-7.384206743500000,-2.2454147917500000
mp-754022,AlCoO3,,Triclinic,P1,1.0,1,10.0,3.0,93.40382959355360,4.761424852352280,-7.369777195000000,-2.2309852432500000
mp-1385937,AlCrO3,,Hexagonal,P6_3/mmc,194.0,6/mmm,10.0,3.0,102.8053083398930,4.101895980166580,-8.170159632,-2.522421745250000
mp-1345463,AlCrO3,,Orthorhombic,Pnma,62.0,mmm,20.0,3.0,191.0202958801220,4.4152028880097200,-8.3687851905,-2.7210473037500000
mp-1383064,AlCrO3,,Tetragonal,P4/mmm,123.0,4/mmm,5.0,3.0,54.568296419178200,3.863934818304000,-7.202312774000000,-1.5545748872500000
mp-1251690,AlCrO3,,Hexagonal,P6_3cm,185.0,6mm,30.0,3.0,306.4745698006160,4.1278793339382500,-8.192928276,-2.5451903892500000
mp-776172,AlCuO3,,Monoclinic,P2_1/c,14.0,2/m,20.0,3.0,198.42876062512900,4.636977017852500,-6.593635974,-2.05666624725
mp-1504314,AlCuO3,,Cubic,Pm-3m,221.0,m-3m,5.0,3.0,50.618016416915900,4.544378009211110,-5.386731856,-0.8497621292500000
mp-1347317,AlCuO3,,Orthorhombic,Pnma,62.0,mmm,20.0,3.0,193.4519105341510,4.756270435164540,-6.495386937500000,-1.9584172107500000
mp-1412082,AlCuO3,,Hexagonal,P6_3/mmc,194.0,6/mmm,10.0,3.0,97.00166525182580,4.742751582207300,-6.475611387000000,-1.9386416602500000
mp-1253258,AlCuO3,,Hexagonal,P6_3cm,185.0,6mm,30.0,3.0,289.82739014121500,4.762021986179600,-6.510882523333330,-1.9739127965833300
mp-1178579,AlCuO3,,Trigonal,R-3,148.0,-3,10.0,3.0,93.92117845950880,4.8983073774801200,-6.567560945000000,-2.0305912182500000
mp-1178577,AlFeO3,,Trigonal,R-3,148.0,-3,20.0,3.0,193.12520973604200,4.499455863270270,-7.946164339000000,-2.535031704250000
mp-1254277,AlFeO3,,Orthorhombic,Pnma,62.0,mmm,20.0,3.0,179.40360141259500,4.8435948356114100,-7.6984840205,-2.28735138575
mp-1259818,AlFeO3,,Monoclinic,P2_1/c,14.0,2/m,20.0,3.0,197.90872811237300,4.390702550514780,-7.768090903000000,-2.3569582682500000
mp-776154,AlFeO3,,Orthorhombic,Pnma,62.0,mmm,20.0,3.0,182.98391243946500,4.748823793892830,-7.898401108,-2.4872684732500000
mp-1421498,AlFeO3,,Cubic,Pm-3m,221.0,m-3m,5.0,3.0,54.91632829150120,3.955828732210650,-6.574422204000000,-1.16328956925
mp-1398131,AlFeO3,,Hexagonal,P6_3/mmc,194.0,6/mmm,10.0,3.0,105.2782827603760,4.126959209953930,-7.713172641,-2.3020400062500000
mp-21216,AlFeO3,"['icsd-203202', 'icsd-203203']",Orthorhombic,Pna2_1,33.0,mm2,40.0,3.0,410.0410451498140,4.238396948650080,-7.9347613565,-2.5236287217500000
mp-1264966,AlFeO3,,Triclinic,P-1,2.0,-1,20.0,3.0,197.55869509092100,4.398481964523100,-7.7426695995,-2.3315369647500000
mp-756686,AlGaO3,,Orthorhombic,Pnma,62.0,mmm,20.0,3.0,182.42240177281900,5.268750946247230,-7.063751335000000,-2.7410037377500000
mp-772187,AlGaO3,,Orthorhombic,Pna2_1,33.0,mm2,40.0,3.0,394.62822780999700,4.871107205336530,-7.14254157675,-2.8197939795000000
mp-772898,AlGaO3,,Orthorhombic,Pna2_1,33.0,mm2,40.0,3.0,399.14955897707600,4.815930171239060,-7.143614212,-2.82086661475
mp-1178550,AlInO3,,Orthorhombic,Pnma,62.0,mmm,20.0,3.0,202.9318362183000,6.212264483894980,-6.9170019495,-2.649536810750000
mp-1183160,AlInO3,,Cubic,Pm-3m,221.0,m-3m,5.0,3.0,51.258261443683900,6.1486002611286400,-6.512231168,-2.2447660292500000
mp-754157,AlInO3,,Hexagonal,P6_3/mmc,194.0,6/mmm,10.0,3.0,112.28447654040900,5.613715616053320,-6.945375648,-2.6779105092500000
mp-504482,AlInS3,,Hexagonal,P6_1,169.0,6,30.0,3.0,713.3884528706350,3.3238488292807300,-4.899702003,-1.1183801708750000
mp-862787,AlInSe3,,Hexagonal,P6_1,169.0,6,30.0,3.0,815.5387502722510,4.626233890351230,-4.374170138,-0.9771713394062510
mp-1183133,AlIrO3,,Cubic,Pm-3m,221.0,m-3m,5.0,3.0,49.1923229250551,9.019509478935860,-6.686330656,-1.20151542725
mp-1246835,AlMoN3,,Triclinic,P-1,2.0,-1,20.0,3.0,297.44837391102100,3.683221138552950,-8.572850048,-0.6527079050000000
mp-1433892,AlMoO3,,Cubic,Pm-3m,221.0,m-3m,5.0,3.0,64.37132382637050,4.409089114959140,-7.2902197,-1.4039612852500000
mp-1389151,AlMoO3,,Hexagonal,P6_3/mmc,194.0,6/mmm,10.0,3.0,114.37731397711200,4.962853092618610,-7.929805426,-2.04354701125
mp-1248370,AlMoO3,,Hexagonal,P6_3cm,185.0,6mm,30.0,3.0,320.8516001512000,5.307479901573400,-8.046364926,-2.16010651125
mp-1373731,AlMoO3,,Orthorhombic,Pnma,62.0,mmm,20.0,3.0,222.55271337121200,5.101153769802970,-8.3337379745,-2.447479559750000
mp-1416557,AlNiO3,,Cubic,Pm-3m,221.0,m-3m,5.0,3.0,49.00876957089660,4.529178568322000,-5.768405216,-0.8952494872500000
mp-1400395,AlNiO3,,Hexagonal,P6_3/mmc,194.0,6/mmm,10.0,3.0,93.4651059583781,4.749782638649850,-6.709563836000000,-1.8364081072500000
mp-1333178,AlNiO3,,Hexagonal,P6_3cm,185.0,6mm,30.0,3.0,279.6365120675450,4.762671379910230,-6.720091479333330,-1.846935750583330
mp-1376903,AlNiO3,,Orthorhombic,Pnma,62.0,mmm,20.0,3.0,178.3014862246490,4.979643714706200,-6.886995670500000,-2.0138399417500000
mp-1183176,AlNiO3,,Cubic,Pm-3m,221.0,m-3m,5.0,3.0,48.94206694176440,4.53535133823537,-6.2603752120000000,-1.3872194832500000
mp-1183154,AlPbO3,,Cubic,Pm-3m,221.0,m-3m,5.0,3.0,56.3792677148114,8.311042316450270,-6.651739886,-2.1920820792500000
mp-776116,AlPdO3,,Monoclinic,C2/c,15.0,2/m,20.0,3.0,229.89356275877000,5.241057626870640,-6.687652707000000,-1.9345479522500000
mp-1178574,AlPdO3,,Hexagonal,P6_3/mmc,194.0,6/mmm,10.0,3.0,106.52686856388700,5.655312254591950,-6.726789122,-1.9736843672500000
mp-1178547,AlRhO3,,Hexagonal,P6_3/mmc,194.0,6/mmm,10.0,3.0,102.22416035606500,5.779169758653570,-7.413761879000000,-2.22377191225
mp-1371447,AlSbO3,,Orthorhombic,Pnma,62.0,mmm,20.0,3.0,259.2869453433540,5.039883847069210,-6.7929681745000000,-2.2500395337500000
mp-1374707,AlSbO3,,Hexagonal,P6_3cm,185.0,6mm,30.0,3.0,366.00012121400100,5.355637929534240,-6.726732407,-2.18380376625
mp-1261047,AlSbO3,,Monoclinic,P2_1,4.0,2,20.0,3.0,324.7624693329950,4.02379034214076,-7.070983868500000,-2.5280552277500000
mp-1183134,AlSbO3,,Cubic,Pm-3m,221.0,m-3m,5.0,3.0,52.901571703463400,6.1755069155456500,-6.813236746000000,-2.27030810525
mp-1384267,AlSbO3,,Hexagonal,P6_3/mmc,194.0,6/mmm,10.0,3.0,136.03416288565900,4.803117319471720,-6.330808508,-1.7878798672500000
mp-1421511,AlSbO3,,Cubic,Pm-3m,221.0,m-3m,5.0,3.0,66.5165215902092,4.911471828166960,-5.814324374,-1.27139573325
mp-1079481,AlSBr3,['icsd-26075'],Trigonal,P-3m1,164,-3m,10,3,379.935311177417,2.61149838001744,-3.411953277,-0.903731139625
mp-1183132,AlSiO3,,Cubic,Pm-3m,221.0,m-3m,5.0,3.0,45.080689872433400,3.796389442753490,-6.957105078,-2.1549130792500000
mp-1406914,AlSnO3,,Hexagonal,P6_3/mmc,194.0,6/mmm,10.0,3.0,127.22052767406500,5.056249704746500,-6.533496764000000,-2.01445400025
mp-1248301,AlSnO3,,Hexagonal,P6_3cm,185.0,6mm,30.0,3.0,355.83394483580400,5.423249508586170,-6.761913550666670,-2.242870786916670
mp-1340379,AlSnO3,,Monoclinic,P2_1/c,14.0,2/m,20.0,3.0,255.89970394060300,5.027428680722430,-6.956433518,-2.43739075425
mp-1426094,AlSnO3,,Cubic,Pm-3m,221.0,m-3m,5.0,3.0,65.77111511498310,4.890131134048120,-5.873238904,-1.35419614025
mp-768539,AlTlO3,,Orthorhombic,Pnma,62.0,mmm,20.0,3.0,214.28280191741900,8.659458159188340,-6.3803607985,-2.1907037764166700
mp-765647,AlVO3,,Monoclinic,Cm,8.0,m,40.0,3.0,430.7649427287130,3.8832711814553600,-8.4264897375,-2.8925801307500000
mp-1395974,AlVO3,,Cubic,Pm-3m,221.0,m-3m,5.0,3.0,55.87365738853550,3.742320545725790,-7.286648706000000,-1.7527390992500000
mp-1248251,AlVO3,,Orthorhombic,Pnma,62.0,mmm,20.0,3.0,200.08143917242400,4.18024054354719,-8.363604847500000,-2.8296952407500000
mp-1178549,AlVO3,,Trigonal,R-3,148.0,-3,20.0,3.0,186.11277526267300,4.493987813890740,-8.495406463,-2.961496856250000
mp-802021,AlVO3,,Triclinic,P1,1.0,1,40.0,3.0,430.76472283781900,3.8832731637346100,-6.431849764000000,-0.897940157250001
mp-1183128,AlVO3,,Cubic,Pm-3m,221.0,m-3m,5.0,3.0,48.24822233179430,4.333779068004550,-7.805885834,-2.2719762272500000
mp-1384488,AlVO3,,Hexagonal,P6_3/mmc,194.0,6/mmm,10.0,3.0,105.4457148889400,3.9659674407858200,-8.18761932,-2.653709713250000
mp-756082,AlVO3,,Orthorhombic,Pnma,62.0,mmm,20.0,3.0,184.73950209166100,4.527394166218190,-8.4287792535,-2.8948696467500000
mp-1246403,AlWN3,,Triclinic,P-1,2.0,-1,20.0,3.0,337.3770936711150,4.977853285650080,-8.979361524,-0.6367233569999980
mp-1417649,AlWO3,,Cubic,Pm-3m,221.0,m-3m,5.0,3.0,65.72229455843150,6.539337831097740,-7.760853984000000,-1.4520995452500000
mp-1400236,AlWO3,,Hexagonal,P6_3/mmc,194.0,6/mmm,10.0,3.0,120.06924844116400,7.1588736122238500,-8.202397247,-1.89364280825
mp-1251647,AlWO3,,Hexagonal,P6_3cm,185.0,6mm,30.0,3.0,326.1757904694500,7.905803552138630,-8.391159648666670,-2.082405209916670
mp-1046804,AlWO3,,Orthorhombic,Pnma,62.0,mmm,20.0,3.0,251.26224282870500,6.841939836467950,-8.653441592,-2.3446871532500000
mp-755240,AsAuO3,,Monoclinic,C2/c,15.0,2/m,20.0,3.0,344.1840454762890,6.173253171712360,-5.632816046,-1.0782027382500000
mp-27274,AsCF3,['icsd-9071'],Tetragonal,P4_2/nmc,137.0,4/mmm,40.0,3.0,744.6103725149250,2.56775635979426,-5.41354973875,-1.4891055787500000
mp-1183283,BaAlO3,,Cubic,Pm-3m,221.0,m-3m,5.0,3.0,61.951203638108300,5.69066640911675,-6.9970890080000000,-2.8961656272500000
mp-1183287,BaAuO3,,Cubic,Pm-3m,221.0,m-3m,5.0,3.0,74.70777290092100,8.49724724234547,-5.472031942,-1.4654473272500000
mp-1183282,BaBeO3,,Cubic,Pm-3m,221.0,m-3m,5.0,3.0,59.04946220190080,5.4649915998960600,-6.126401228000000,-2.0267104402500000
mp-545783,BaBiO3,['icsd-151896'],Cubic,Pm-3m,221.0,m-3m,5.0,3.0,86.82725775700080,7.540948198682000,-6.342794462,-2.22288842125
mp-644369,BaBiO3,,Triclinic,P1,1.0,1,10.0,3.0,194.21786912608700,6.7425294688418200,-5.417050556,-1.2971445152500000
mp-1227955,BaBiO3,,Trigonal,R32,155.0,32,5.0,3.0,87.31982579640250,7.498409977429530,-6.34115627,-2.22125022925
mp-23438,BaBiO3,"['icsd-68715', 'icsd-172759', 'icsd-68714', 'icsd-81315']",Cubic,Fm-3m,225.0,m-3m,10.0,3.0,173.5986381818340,7.543375453133810,-6.339119297,-2.2192132562500000
mp-559051,BaBiO3,['icsd-172756'],Monoclinic,P2_1/c,14.0,2/m,20.0,3.0,334.66604672074300,7.825829472632550,-6.364005464,-2.2440994232500000
mp-22942,BaBiO3,"['icsd-61499', 'icsd-151894', 'icsd-172757', 'icsd-28161', 'icsd-28163', 'icsd-1430', 'icsd-67073', 'icsd-1431', 'icsd-28162', 'icsd-87326']",Monoclinic,C2/m,12.0,2/m,10.0,3.0,167.31160052336400,7.826831503984310,-6.36393313,-2.2440270892500000
mp-23482,BaBiO3,"['icsd-28165', 'icsd-172758', 'icsd-151895', 'icsd-28164', 'icsd-28166']",Trigonal,R-3,148.0,-3,10.0,3.0,167.38710722211000,7.823300896291100,-6.362595421,-2.2426893802500000
mp-1182285,BaBiO3,,Triclinic,P1,1.0,1,10.0,3.0,207.72494216352500,6.304104323338450,-5.720806651,-1.6009006102500000
mp-27365,BaBiSe3,['icsd-10505'],Orthorhombic,P2_12_12_1,19.0,222,40.0,3.0,1254.1615237266000,6.177229599398780,-4.57654842675,-1.32710872615625
mp-1214407,BaBO3,,Cubic,Pm-3m,221.0,m-3m,5.0,3.0,53.74918146839160,6.059475020396390,-6.2623930880000000,-1.574706519083330
mp-1183285,BaCaO3,,Cubic,Pm-3m,221.0,m-3m,5.0,3.0,88.98091885869190,4.206416658059620,-6.033683868,-2.28075567725