nsites,nelements,formula_pretty,volume,density,crystal_system,symbol,number,point_group,symprec,version,material_id,energy_per_atom,formation_energy_per_atom,e_total,e_electronic,icsd
10.0,2.0,Y2Cl3,263.18960308422294,3.585829709101876,Monoclinic,C2/m,12.0,2/m,0.1,1.16.2,mp-27678,-5.91355419,-2.2178437486666667,9.872285818106127,6.533809933320332,['icsd-23337']
20.0,2.0,Y2Se3,581.6218463778948,4.735804012405395,Orthorhombic,Fddd,70.0,mmm,0.1,1.16.2,mp-1105821,-6.86346001,-2.1793246780729163,17.66298897,7.045689556666667,"['icsd-652183', 'icsd-652178']"
40.0,2.0,Y2Se3,994.3227431115107,5.5403481271275,Tetragonal,I-42d,122.0,-42m,0.1,1.16.2,mp-673656,-6.803754618499999,-2.1196192865729158,,,
10.0,2.0,Y2Br3,307.2754163144319,4.512657884559931,Monoclinic,C2/m,12.0,2/m,0.1,1.16.2,mp-1205567,-5.424397778,-1.9059923346666672,9.057482923333332,6.68529251,
40.0,3.0,YZrO3,576.0795248103736,5.2606006344276395,Orthorhombic,I2_12_12_1,24.0,222,0.1,1.16.2,mp-1215965,-9.583364237249999,-3.6125166618333333,,,
40.0,3.0,YZrO3,571.3564549400056,5.304086945191579,Monoclinic,C2,5.0,2,0.1,1.16.2,mp-766243,-9.6254433785,-3.654595803083334,,,
20.0,3.0,YMoN3,298.7641608959705,5.043707675332528,Monoclinic,C2/c,15.0,2/m,0.1,1.16.2,mp-989604,-9.5667560595,-1.1024348598333333,18.016476053333328,7.872483546666665,
20.0,3.0,YMoO3,245.85946991487663,6.290530791174836,Orthorhombic,Pnma,62.0,mmm,0.1,1.16.2,mp-1379411,-9.328163984,-2.8977265125833327,,,
30.0,3.0,YMoO3,428.9673729625228,5.408056637689461,Hexagonal,P6_3cm,185.0,6mm,0.1,1.16.2,mp-1371109,-9.178302571,-2.7478650995833345,,,
10.0,3.0,YMoO3,144.31013645546886,5.358551394200571,Hexagonal,P6_3/mmc,194.0,6/mmm,0.1,1.16.2,mp-1445377,-9.129895719999999,-2.699458248583332,,,
5.0,3.0,YMoO3,68.32803813085468,5.658682029036143,Cubic,Pm-3m,221.0,m-3m,0.1,1.16.2,mp-1503976,-8.753013688,-2.3225762165833332,,,
20.0,3.0,YTcN3,311.92124900351655,4.874826380670623,Monoclinic,C2/c,15.0,2/m,0.1,1.16.2,mp-989640,-9.1581330095,-0.7908140428333326,,,
5.0,3.0,YTcN3,59.9919085742968,6.33652924815243,Orthorhombic,Amm2,38.0,mm2,0.1,1.16.2,mp-989557,-9.120861510000001,-0.753542543333333,,,
20.0,3.0,YRhO3,228.16866006717177,6.981031070639306,Orthorhombic,Pnma,62.0,mmm,0.1,1.16.2,mp-1207629,-8.290526322,-2.5563572985833334,20.877946443333332,10.76869346333333,
20.0,3.0,YAgO3,262.8602745640324,6.185094103225859,Orthorhombic,Pnma,62.0,mmm,0.1,1.16.2,mp-1369873,-6.923842615,-2.0960239649166668,,,
5.0,3.0,YAgO3,86.74504699043106,4.685614886915885,Cubic,Pm-3m,221.0,m-3m,0.1,1.16.2,mp-1094009,-6.369843766000001,-1.5420251159166676,,,
5.0,3.0,YAgO3,66.64785960361091,6.098528684371441,Cubic,Pm-3m,221.0,m-3m,0.1,1.16.2,mp-1418929,-6.419932356000001,-1.5921137059166681,,,
30.0,3.0,YAgO3,410.7811382141837,5.936794741524685,Hexagonal,P6_3cm,185.0,6mm,0.1,1.16.2,mp-1369676,-6.992948920333334,-2.1651302702500015,,,
30.0,3.0,YInO3,421.0249555696462,5.956810290032705,Hexagonal,P6_3cm,185.0,6mm,0.1,1.16.2,mp-504607,-7.7918296520000006,-2.980185456583334,13.817064406674723,4.449138863333334,['icsd-251']
5.0,3.0,YSnO3,71.05362594266687,5.97375729057571,Cubic,Pm-3m,221.0,m-3m,0.1,1.16.2,mp-1412687,-7.235911880000001,-2.172690059583334,,,
10.0,3.0,YSnO3,151.63367792256705,5.598454404220124,Hexagonal,P6_3/mmc,194.0,6/mmm,0.1,1.16.2,mp-1394022,-7.8559475050000005,-2.792725684583334,,,
30.0,3.0,YSnO3,449.90207595569206,5.6606600237867895,Hexagonal,P6_3cm,185.0,6mm,0.1,1.16.2,mp-1376465,-7.867746203,-2.804524382583334,,,
20.0,3.0,YSnO3,288.862121719322,5.877643125660857,Monoclinic,P2_1/c,14.0,2/m,0.1,1.16.2,mp-1343054,-7.845878460500001,-2.782656640083334,,,
5.0,3.0,YSbO3,76.78692265678544,5.593683732708098,Cubic,Pm-3m,221.0,m-3m,0.1,1.16.2,mp-1416619,-7.006274104000001,-1.9191664065833336,,,
30.0,3.0,YSbO3,466.31501448263765,5.526587137150414,Hexagonal,P6_3cm,185.0,6mm,0.1,1.16.2,mp-1347073,-7.762523985666666,-2.6754162882499997,,,
20.0,3.0,YSbO3,296.8252317901596,5.788210895138803,Orthorhombic,Pnma,62.0,mmm,0.1,1.16.2,mp-1340878,-7.6891270590000005,-2.6020193615833334,,,
10.0,3.0,YSbO3,158.70455487683046,5.412847293303265,Hexagonal,P6_3/mmc,194.0,6/mmm,0.1,1.16.2,mp-1389035,-7.745969549,-2.658861851583333,,,
20.0,3.0,LaYO3,311.9431159769749,5.872769225450698,Orthorhombic,Pnma,62.0,mmm,0.1,1.16.2,mp-10429,-9.1327788055,-3.8842699350833336,,,['icsd-419666']
40.0,3.0,LaYS3,956.4758933851981,4.500062413751802,Monoclinic,P2_1/m,11.0,2/m,0.1,1.16.2,mp-1200447,-7.2171600284999995,-2.4547944647083333,,,['icsd-641874']
20.0,3.0,SmYO3,300.61674476601416,6.347127174516112,Orthorhombic,Pna2_1,33.0,mm2,0.1,1.16.2,mp-755685,-9.058397775,-3.853373098583334,22.35116890333333,4.432009236666667,
30.0,3.0,DyYO3,460.54369843257217,6.477198017239404,Hexagonal,P6_3cm,185.0,6mm,0.1,1.16.2,mp-768333,-9.077124425333333,-3.894459607916667,,,
30.0,3.0,YHoO3,456.3680585577812,6.589520282530561,Hexagonal,P6_3cm,185.0,6mm,0.1,1.16.2,mp-768889,-9.091635003333332,-3.913845779916666,,,
20.0,3.0,YErO3,282.87836115738855,7.141933728330594,Orthorhombic,Pnma,62.0,mmm,0.1,1.16.2,mp-755109,-9.09208816,-3.9172369485833336,,,
40.0,3.0,YTmO3,577.9217459824529,7.030105820678191,Monoclinic,C2,5.0,2,0.1,1.16.2,mp-766256,-9.18579231675,-4.029317782666667,,,
30.0,3.0,YTmO3,448.20930423084536,6.798471705032728,Hexagonal,P6_3cm,185.0,6mm,0.1,1.16.2,mp-768353,-9.112848489666666,-3.9563739555833317,17.606293990001536,4.059304866666667,
20.0,3.0,YTmO3,278.62127367824564,7.290992135474123,Orthorhombic,Pnma,62.0,mmm,0.1,1.16.2,mp-753995,-9.1004170215,-3.943942487416667,,,
20.0,3.0,YLuO3,271.33809018975455,7.6343732190994285,Orthorhombic,Pnma,62.0,mmm,0.1,1.16.2,mp-1101170,-9.13767567,-3.9721781165833336,,,
10.0,3.0,YLuO3,148.49016885400343,6.975196624306344,Hexagonal,P6_3/mmc,194.0,6/mmm,0.1,1.16.2,mp-754226,-9.140512511999999,-3.9750149585833325,,,
10.0,3.0,YWN3,132.66287878756367,7.879840413344933,Orthorhombic,Pmc2_1,26.0,mm2,0.1,1.16.2,mp-989407,-10.055900034,-1.169082810333333,,,
10.0,3.0,YWN3,156.86452342380093,6.664109199482082,Monoclinic,P2_1/m,11.0,2/m,0.1,1.16.2,mp-989645,-10.079925511999999,-1.1931082883333333,,,
20.0,3.0,YWN3,303.4933381065926,6.88886497570351,Monoclinic,C2/c,15.0,2/m,0.1,1.16.2,mp-989615,-10.0944822165,-1.2076649928333325,15.605972713333331,7.0385191833333325,
10.0,3.0,YWN3,139.32116428808015,7.503255653673589,Orthorhombic,Cmcm,63.0,mmm,0.1,1.16.2,mp-989609,-10.072038183,-1.1852209593333327,,,
10.0,3.0,YWN3,125.10776915767165,8.355694619600069,Trigonal,R3c,161.0,3m,0.1,1.16.2,mp-989576,-10.048542458,-1.1617252343333333,,,
10.0,3.0,YWN3,151.49849982350327,6.900149604377458,Orthorhombic,Ama2,40.0,mm2,0.1,1.16.2,mp-989617,-10.070145615,-1.1833283913333332,22.472848096666663,7.480253083333331,
30.0,3.0,YWO3,422.57259174608294,7.562364940003576,Hexagonal,P6_3cm,185.0,6mm,0.1,1.16.2,mp-1375712,-9.422868965,-2.5699354695833336,,,
20.0,3.0,YWO3,262.56262280021065,8.113996116039354,Orthorhombic,Pnma,62.0,mmm,0.1,1.16.2,mp-1369924,-9.5931023435,-2.740168848083333,,,
10.0,3.0,YWO3,143.10874265346973,7.443403044832641,Hexagonal,P6_3/mmc,194.0,6/mmm,0.1,1.16.2,mp-1401965,-9.407761546,-2.554828050583333,,,
5.0,3.0,YWO3,69.09315987921504,7.708549244752746,Cubic,Pm-3m,221.0,m-3m,0.1,1.16.2,mp-1402304,-9.008857254,-2.155923758583333,,,
20.0,3.0,YReN3,231.49274444991732,9.099406619113887,Orthorhombic,Pnma,62.0,mmm,0.1,1.16.2,mp-989647,-9.6721203255,-0.8880237108333333,,,
20.0,3.0,YReN3,318.28150219661916,6.618187348579105,Monoclinic,C2/c,15.0,2/m,0.1,1.16.2,mp-989628,-9.663290886,-0.8791942713333342,,,
5.0,3.0,YReN3,61.4222483000434,8.573630359615676,Triclinic,P1,1.0,1,0.1,1.16.2,mp-998367,-9.546440228,-0.7623436133333342,,,
10.0,3.0,YReN3,118.40917513126834,8.894777827770577,Trigonal,R-3c,167.0,-3m,0.1,1.16.2,mp-989611,-9.639656984,-0.8555603693333339,,,
5.0,3.0,YOsO3,62.30532592089454,8.718658670203752,Cubic,Pm-3m,221.0,m-3m,0.1,1.16.2,mp-979436,-8.362913752,-1.8561328165833344,,,
30.0,3.0,YBiO3,495.54932666808253,6.95415706383339,Hexagonal,P6_3cm,185.0,6mm,0.1,1.16.2,mp-1358047,-7.726286742,-2.696881466583333,,,
10.0,3.0,YBiO3,168.4330736052438,6.819974598344834,Hexagonal,P6_3/mmc,194.0,6/mmm,0.1,1.16.2,mp-1406000,-7.691130482,-2.6617252065833332,,,
10.0,3.0,YBiO3,160.11286607696232,7.174372126701876,Trigonal,R3c,161.0,3m,0.1,1.16.2,mp-768221,-7.81337911,-2.783973834583333,47.584311339997974,5.558068490000001,
20.0,3.0,YBiO3,313.81074651439235,7.3210321588284115,Orthorhombic,Pnma,62.0,mmm,0.1,1.16.2,mp-1369528,-7.680666606,-2.6512613305833335,,,
10.0,3.0,YBiO3,159.81620942451218,7.18768945681628,Trigonal,R-3,148.0,-3,0.1,1.16.2,mp-754152,-7.798726501,-2.769321225583334,,,
5.0,3.0,YBiO3,85.68108313135833,6.703400806382276,Cubic,Pm-3m,221.0,m-3m,0.1,1.16.2,mp-1424898,-6.747321852000001,-1.717916576583334,,,
10.0,2.0,Zr2Se3,232.6585046326569,5.985687278602991,Monoclinic,C2/m,12.0,2/m,0.1,1.16.2,mp-1215598,-7.156344268,-1.6397171294062496,,,
20.0,3.0,ZrMoN3,297.55737394676356,5.11590953295144,Triclinic,P-1,2.0,-1,0.1,1.16.2,mp-1246219,-9.7748100355,-0.8942429324999992,,,
5.0,3.0,ZrCdO3,71.96388740867712,5.806339458576674,Cubic,Pm-3m,221.0,m-3m,0.1,1.16.2,mp-1016845,-7.3520743699999995,-2.4899430652500003,,,
20.0,3.0,ZrSnS3,497.9424921421011,4.08351704818253,Orthorhombic,Pnma,62.0,mmm,0.1,1.16.2,mp-17324,-6.391487313000001,-1.3981628958750008,25.33613708333333,8.607482963333332,['icsd-73711']
10.0,3.0,BaZrO3,149.38125101812372,6.1483050557832275,Tetragonal,I4/mcm,140.0,4/mmm,0.1,1.16.2,mp-1019544,-8.701104963,-3.63975662225,,,['icsd-190881']
5.0,3.0,BaZrO3,74.74546324141521,6.143794292287296,Cubic,Pm-3m,221.0,m-3m,0.1,1.16.2,mp-3834,-8.701280686,-3.63993234525,55.249304263333336,4.927720910000004,"['icsd-97461', 'icsd-97459', 'icsd-27048', 'icsd-90049', 'icsd-43136', 'icsd-290002', 'icsd-97462', 'icsd-97460']"
20.0,3.0,BaZrS3,506.0566946992324,4.262395303692848,Orthorhombic,Pnma,62.0,mmm,0.1,1.16.2,mp-540771,-6.6834714570000004,-2.1082664228750003,110.36956133666662,9.587379156666666,"['icsd-616104', 'icsd-165977', 'icsd-23288']"
10.0,3.0,BaZrSe3,294.58920587065876,5.247078595581919,Hexagonal,P6_3/mmc,194.0,6/mmm,0.1,1.16.2,mp-1079300,-6.062030293,-1.8711482924062501,,,['icsd-616136']
20.0,3.0,BaZrSe3,561.8133477504385,5.5026557229467405,Orthorhombic,Pnma,62.0,mmm,0.1,1.16.2,mp-998427,-6.1113449565,-1.9204629559062503,,,
5.0,3.0,BaZrSe3,148.68645536701626,5.197960744971479,Triclinic,P1,1.0,1,0.1,1.16.2,mp-998350,-6.033841046,-1.8429590454062499,,,
5.0,3.0,LaZrO3,73.75816404510208,6.261569380374259,Cubic,Pm-3m,221.0,m-3m,0.1,1.16.2,mp-1185065,-9.093685098,-3.4289303242500004,,,
10.0,3.0,NdZrO3,142.99614026070765,6.583441724012115,Monoclinic,C2/m,12.0,2/m,0.1,1.16.2,mp-771131,-9.081454101,-3.45027126175,,,
20.0,3.0,NdZrO3,310.4431765214905,6.064921553203231,Tetragonal,I-4m2,119.0,-42m,0.1,1.16.2,mp-756246,-9.195393210999999,-3.5642103717499998,,,
40.0,3.0,NdZrO3,572.5350578135857,6.577111695204162,Orthorhombic,Pbam,55.0,mmm,0.1,1.16.2,mp-1101702,-9.081503696999999,-3.4503208577499995,,,
20.0,3.0,EuZrO3,274.21787904044083,7.053166080151789,Orthorhombic,Pnma,62.0,mmm,0.1,1.16.2,mp-1106293,-10.3761299985,-3.6471762857499996,,,"['icsd-192313', 'icsd-182342', 'icsd-174198', 'icsd-160941']"
40.0,3.0,EuZrO3,585.7820910571171,6.603493935872536,Cubic,P2_13,198.0,23,0.1,1.16.2,mp-1178354,-10.291737049249999,-3.5627833365,,,
5.0,3.0,EuZrO3,73.94695196343135,6.538823412138973,Cubic,Pm-3m,221.0,m-3m,0.1,1.16.2,mp-771055,-10.282810812,-3.55385709925,,,
20.0,3.0,EuZrS3,453.9792656740195,4.965501930606425,Orthorhombic,Pnma,62.0,mmm,0.1,1.16.2,mp-1189927,-8.331561390000001,-2.0887509838750007,,,['icsd-631644']
20.0,3.0,EuZrSe3,512.214193101151,6.225299332672766,Orthorhombic,Pnma,62.0,mmm,0.1,1.16.2,mp-1106192,-7.7314218829999986,-1.872934510406249,,,['icsd-66694']
5.0,3.0,GdZrO3,72.1126937347448,6.826865628840743,Cubic,Pm-3m,221.0,m-3m,0.1,1.16.2,mp-1184599,-10.773722312,-3.28094451125,,,
20.0,3.0,ZrWN3,272.96074749716735,7.71584251985777,Triclinic,P-1,2.0,-1,0.1,1.16.2,mp-1246572,-10.269462434,-0.966399306999999,,,
5.0,3.0,ZrOsO3,60.52754994516142,9.038334595947893,Cubic,Pm-3m,221.0,m-3m,0.1,1.16.2,mp-972296,-8.15535153,-1.232324691250001,,,
5.0,3.0,ZrTlO3,74.75924335094658,7.632104481985796,Cubic,Pm-3m,221.0,m-3m,0.1,1.16.2,mp-1183044,-7.6069044020000005,-2.456822419916668,,,
40.0,3.0,ZrPbO3,605.8365142698349,7.596076936112935,Orthorhombic,Pba2,32.0,mm2,0.1,1.16.2,mp-647557,-8.26661826725,-2.8465355005,,,['icsd-31154']
40.0,3.0,ZrPbO3,594.0289866900115,7.747064328868598,Orthorhombic,Pbam,55.0,mmm,0.1,1.16.2,mp-542903,-8.271159751,-2.8510769842500006,,,"['icsd-84560', 'icsd-87587', 'icsd-162049', 'icsd-153712', 'icsd-280469', 'icsd-193183', 'icsd-87896', 'icsd-59399', 'icsd-162380', 'icsd-86443', 'icsd-87586', 'icsd-59402', 'icsd-150699', 'icsd-86153', 'icsd-59400', 'icsd-59405', 'icsd-84559', 'icsd-59403', 'icsd-59406', 'icsd-150698', 'icsd-162381', 'icsd-51574', 'icsd-160460']"
20.0,3.0,ZrPbO3,305.71855243585884,7.52649902407487,Monoclinic,Pm,6.0,m,0.1,1.16.2,mp-1100803,-8.260584683000001,-2.8405019162500005,,,
5.0,3.0,ZrPbO3,74.56174053380131,7.715050540923727,Cubic,Pm-3m,221.0,m-3m,0.1,1.16.2,mp-1068577,-8.214781556,-2.79469878925,,,"['icsd-290878', 'icsd-290876', 'icsd-262104', 'icsd-290873', 'icsd-290879', 'icsd-290874', 'icsd-290877', 'icsd-262105', 'icsd-290872', 'icsd-290875']"
20.0,3.0,ZrPbO3,291.6364190475536,7.889928130597705,Orthorhombic,Pnma,62.0,mmm,0.1,1.16.2,mp-755798,-8.2620602365,-2.8419774697499998,,,
5.0,3.0,ZrPbO3,76.35838009464848,7.533522789829773,Orthorhombic,Amm2,38.0,mm2,0.1,1.16.2,mp-20337,-8.264104421999999,-2.8440216552499997,14.430648766666664,6.128442706666665,['icsd-39607']
20.0,3.0,ZrPbS3,490.536716432109,5.343373851309391,Orthorhombic,Pnma,62.0,mmm,0.1,1.16.2,mp-20244,-6.3543417390000005,-1.4204022788750001,,,"['icsd-2439', 'icsd-648497']"
20.0,2.0,Nb2N3,205.0041400103404,7.3818092584106,Orthorhombic,Pnma,62.0,mmm,0.1,1.16.2,mp-1188869,-10.0835427325,-1.041123761499999,,,['icsd-182699']
10.0,2.0,Nb2O3,119.20386858387614,6.514087804223596,Monoclinic,C2/m,12.0,2/m,0.1,1.16.2,mp-1095187,-9.581871108,-2.5733358652500002,,,['icsd-263119']
10.0,2.0,Nb2Se3,208.12684634609485,6.744904402979224,Monoclinic,P2_1/m,11.0,2/m,0.1,1.16.2,mp-2330,-7.262112628999999,-1.1240437264062493,,,"['icsd-42981', 'icsd-660018']"
10.0,2.0,Nb2Se3,214.55372342115518,6.5428632974240895,Monoclinic,Pm,6.0,m,0.1,1.16.2,mp-1173590,-7.001280231,-0.8632113284062498,,,
5.0,2.0,Nb2Se3,141.75015689876827,4.951654774183019,Trigonal,P3m1,156.0,3m,0.1,1.16.2,mp-1220681,-7.214431125999999,-1.0763622234062495,,,
20.0,3.0,NbMoN3,236.50518596334837,6.483795400035549,Triclinic,P-1,2.0,-1,0.1,1.16.2,mp-1247545,-9.755764488999999,-0.5644765039999996,,,
10.0,3.0,NbMoS3,175.55002194293814,5.392449876667375,Monoclinic,P2_1/m,11.0,2/m,0.1,1.16.2,mp-1220398,-7.854546694,-1.1832857438749997,,,
10.0,3.0,NbMoSe3,201.27830528647027,7.024455861410876,Monoclinic,P2_1/m,11.0,2/m,0.1,1.16.2,mp-1220396,-7.2245565759999995,-0.9376186594062489,,,
10.0,3.0,NbAgO3,137.02715410739583,6.029416907730857,Orthorhombic,Pmmm,47.0,mmm,0.1,1.16.2,mp-2349989,-7.709486103000001,-2.1547006675833336,,,
40.0,3.0,NbAgO3,514.8489876818318,6.418921738690091,Orthorhombic,Pmc2_1,26.0,mm2,0.1,1.16.2,mp-1203481,-7.736745503749999,-2.181960068333333,,,['icsd-182047']
10.0,3.0,NbAgO3,136.91213819505973,6.034482045823357,Orthorhombic,Cmmm,65.0,mmm,0.1,1.16.2,mp-557680,-7.705599766000001,-2.1508143305833336,,,
20.0,3.0,NbAgO3,254.284099930991,6.498195050477723,Orthorhombic,Cmcm,63.0,mmm,0.1,1.16.2,mp-1205362,-7.725453274,-2.1706678385833333,,,['icsd-55647']
40.0,3.0,NbAgO3,513.7503278083724,6.432648662768679,Orthorhombic,Pbcm,57.0,mmm,0.1,1.16.2,mp-5537,-7.73781684325,-2.183031407833334,,,"['icsd-247733', 'icsd-247731', 'icsd-55646', 'icsd-55645', 'icsd-164198', 'icsd-55643', 'icsd-290499', 'icsd-186255', 'icsd-247732', 'icsd-55644', 'icsd-186254', 'icsd-280359']"
10.0,3.0,NbAgO3,127.91798090285629,6.458777991663299,Tetragonal,P4/mbm,127.0,4/mmm,0.1,1.16.2,mp-1220387,-7.722826699,-2.1680412635833326,,,
5.0,3.0,NbAgO3,65.1582457381741,6.339902420894476,Cubic,Pm-3m,221.0,m-3m,0.1,1.16.2,mp-12725,-7.705405074,-2.1506196385833327,,,['icsd-55649']
40.0,3.0,CsNbO3,769.5758857758334,4.726470911583441,Monoclinic,P2_1/c,14.0,2/m,0.1,1.16.2,mp-27556,-8.00268192875,-2.8353272195862074,,,['icsd-1266']
5.0,3.0,CsNbO3,72.55966476353424,6.266184612052443,Cubic,Pm-3m,221.0,m-3m,0.1,1.16.2,mp-1096944,-7.751388582,-2.584033872836207,,,
5.0,3.0,BaNbO3,70.62797941745364,6.541520966089961,Cubic,Pm-3m,221.0,m-3m,0.1,1.16.2,mp-3020,-8.55158716,-3.17951793725,,,"['icsd-150792', 'icsd-50275']"
10.0,3.0,BaNbS3,240.11990490203718,4.514803365910806,Hexagonal,P6_3/mmc,194.0,6/mmm,0.1,1.16.2,mp-35143,-6.633025909,-1.7470999928750004,,,['icsd-659538']
5.0,3.0,PrNbO3,68.26407903161855,6.855145839496563,Cubic,Pm-3m,221.0,m-3m,0.1,1.16.2,mp-975913,-8.87407588,-2.92962049425,,,
10.0,3.0,EuNbO3,131.97665110991449,7.369784191063378,Orthorhombic,Imma,74.0,mmm,0.1,1.16.2,mp-1078341,-10.190223450000001,-3.150548855250001,,,"['icsd-252711', 'icsd-252710']"
5.0,3.0,EuNbO3,67.08132537327681,7.24970348697676,Cubic,Pm-3m,221.0,m-3m,0.1,1.16.2,mp-755572,-10.171373174,-3.1316985792500005,,,"['icsd-252713', 'icsd-252712']"
5.0,3.0,YbNbO3,63.82780586260885,8.16755695722142,Cubic,Pm-3m,221.0,m-3m,0.1,1.16.2,mp-1187578,-8.468985888,-3.1727899972500007,,,
10.0,3.0,NbWN3,137.75807930158786,7.6848370105936326,Monoclinic,C2/m,12.0,2/m,0.1,1.16.2,mp-1247532,-10.365341828999998,-0.7515578199999993,,,
5.0,3.0,NbTlO3,69.35312692633802,8.267313088456405,Cubic,Pm-3m,221.0,m-3m,0.1,1.16.2,mp-977408,-7.82580354,-2.3650006759166664,,,
40.0,3.0,NbTlO3,622.4098078179816,7.369601272493677,Triclinic,P1,1.0,1,0.1,1.16.2,mp-757636,-7.91647763725,-2.455674773166667,,,
40.0,3.0,NbTlO3,621.9806468162132,7.374686230491849,Monoclinic,Cc,9.0,m,0.1,1.16.2,mp-1101462,-7.9163801199999995,-2.4555772559166664,,,
5.0,3.0,NbBiO3,69.41198791748614,8.370278615233202,Cubic,Pm-3m,221.0,m-3m,0.1,1.16.2,mp-1186216,-7.766860284000001,-2.0104882232500003,,,
20.0,2.0,Mo2N3,349.24739722281527,4.448425463670412,Triclinic,P-1,2.0,-1,0.1,1.16.2,mp-1080195,-9.6304424545,-0.29028545550000046,,,
20.0,2.0,Mo2O3,289.2619212503938,5.5081860841390755,Orthorhombic,Cmcm,63.0,mmm,0.1,1.16.2,mp-1371699,-8.7973643075,-1.4910910367500008,,,
10.0,2.0,Mo2S3,168.04545355124995,5.6932190845009245,Monoclinic,P2_1/m,11.0,2/m,0.1,1.16.2,mp-1627,-7.805989200000001,-0.9858592358750016,,,"['icsd-62486', 'icsd-73453', 'icsd-602115', 'icsd-644252', 'icsd-644254', 'icsd-16261', 'icsd-76371']"
20.0,3.0,MoRuN3,301.9051824614328,5.258854000547135,Triclinic,P-1,2.0,-1,0.1,1.16.2,mp-1247498,-8.923859007,0.10204847799999897,,,
5.0,3.0,CsMoO3,70.60272032171409,6.511217942104932,Cubic,Pm-3m,221.0,m-3m,0.1,1.16.2,mp-1183917,-7.094930356000001,-1.7787066328362073,,,
5.0,3.0,BaMoO3,66.35139263198728,7.039066312677537,Cubic,Pm-3m,221.0,m-3m,0.1,1.16.2,mp-19322,-8.038497708,-2.5175594712500002,,,['icsd-43799']
10.0,3.0,LaMoN3,162.75904896753863,5.6494074903714955,Orthorhombic,Ama2,40.0,mm2,0.1,1.16.2,mp-989603,-9.255385783,-1.0971573849999998,,,
20.0,3.0,LaMoN3,326.46148161474116,5.63308226021011,Monoclinic,C2/c,15.0,2/m,0.1,1.16.2,mp-989631,-9.272825628,-1.1145972299999998,,,
10.0,3.0,LaMoN3,171.56191974186592,5.359535447880464,Monoclinic,P2_1/m,11.0,2/m,0.1,1.16.2,mp-989534,-9.250023062,-1.0917946639999996,,,
10.0,3.0,LaMoN3,133.3244203311773,6.896652451808446,Trigonal,R3c,161.0,3m,0.1,1.16.2,mp-989552,-9.243476604,-1.085248206,,,
5.0,3.0,LaMoN3,70.81360396618,6.492341434861131,Tetragonal,P4mm,99.0,4mm,0.1,1.16.2,mp-989515,-9.23118073,-1.0729523319999998,,,
5.0,3.0,EuMoO3,68.93214563075512,7.128128081561703,Cubic,Pm-3m,221.0,m-3m,0.1,1.16.2,mp-1184411,-9.67815512,-2.4896115112499997,,,
20.0,3.0,TaMoN3,263.54579189622444,8.037451945338049,Triclinic,P-1,2.0,-1,0.1,1.16.2,mp-1247469,-10.2192425,-0.6766599970000001,,,
20.0,3.0,MoWN3,297.3243491899777,7.188938802241885,Triclinic,P-1,2.0,-1,0.1,1.16.2,mp-1247512,-9.924415655,-0.16176263199999993,,,