nsites,nelements,formula_pretty,volume,density,crystal_system,symbol,number,point_group,symprec,version,material_id,energy_per_atom,formation_energy_per_atom,e_total,e_electronic,icsd
20.0,3.0,TbTiO3,236.76811009381976,7.147747421016295,Orthorhombic,Pnma,62.0,mmm,0.1,1.16.2,mp-768409,-9.103564156500001,-3.6295793064166673,,,
20.0,3.0,DyTiO3,234.66081411815694,7.313117184258952,Orthorhombic,Pnma,62.0,mmm,0.1,1.16.2,mp-779599,-9.103798283,-3.635329284916667,,,
20.0,3.0,HoTiO3,232.76506970381192,7.442029852766513,Orthorhombic,Pnma,62.0,mmm,0.1,1.16.2,mp-755236,-9.103026565499999,-3.639433161416666,,,
20.0,3.0,ErTiO3,231.137505183394,7.561352072588911,Orthorhombic,Pnma,62.0,mmm,0.1,1.16.2,mp-756296,-9.1054427035,-3.6447873114166667,,,
20.0,3.0,TmTiO3,229.46195942721957,7.665057270760334,Orthorhombic,Pnma,62.0,mmm,0.1,1.16.2,mp-755525,-9.096499389,-3.65422067425,,,
10.0,3.0,YbTiO3,121.15370094544352,7.371257936444899,Trigonal,R-3,148.0,-3,0.1,1.16.2,mp-753164,-8.538106727999999,-3.683073441916666,,,
20.0,3.0,YbTiO3,215.00255770862586,8.307391215634299,Orthorhombic,Pnma,62.0,mmm,0.1,1.16.2,mp-754225,-8.58921781,-3.734184523916666,,,
5.0,3.0,YbTiO3,57.20373903582613,7.805916140066132,Cubic,Pm-3m,221.0,m-3m,0.1,1.16.2,mp-865218,-8.491997762,-3.636964475916666,,,
20.0,3.0,LuTiO3,226.5833669216115,7.939284417974274,Orthorhombic,Pnma,62.0,mmm,0.1,1.16.2,mp-754231,-9.106556190000001,-3.6552544559166678,,,
20.0,3.0,TiWN3,331.8174909783118,5.479331927886032,Triclinic,P-1,2.0,-1,0.1,1.16.2,mp-1246544,-9.954746987499998,-0.7821255831666661,,,
10.0,3.0,TiReN3,106.7880800793473,8.586445954775316,Trigonal,R3c,161.0,3m,0.1,1.16.2,mp-996940,-9.801000126,-0.731099330666666,,,
5.0,3.0,TiPbO3,64.50656431866487,7.801556471692714,Tetragonal,P4mm,99.0,4mm,0.1,1.16.2,mp-20459,-8.020994206000001,-2.7313531619166667,42.37236955666666,6.439158063333333,"['icsd-162048', 'icsd-61168', 'icsd-51838', 'icsd-186727', 'icsd-61169', 'icsd-1610', 'icsd-1612', 'icsd-162046', 'icsd-162044', 'icsd-90693', 'icsd-16621', 'icsd-55059', 'icsd-60188', 'icsd-55061', 'icsd-93553', 'icsd-51840', 'icsd-1611', 'icsd-55060', 'icsd-31152', 'icsd-55054', 'icsd-55056', 'icsd-51841', 'icsd-162045', 'icsd-55058', 'icsd-55057', 'icsd-165498', 'icsd-51839', 'icsd-236933', 'icsd-55055', 'icsd-161709']"
5.0,3.0,TiPbO3,62.52581792285582,8.048700857425851,Cubic,Pm-3m,221.0,m-3m,0.1,1.16.2,mp-19845,-7.9797724599999995,-2.690131415916666,,,"['icsd-162043', 'icsd-187295', 'icsd-1613', 'icsd-187505', 'icsd-262090', 'icsd-153406', 'icsd-162047']"
20.0,3.0,TiPbO3,294.1999112684277,6.8423080368338525,Tetragonal,I4/m,87.0,4/m,0.1,1.16.2,mp-1106215,-8.017888695,-2.728247650916667,,,"['icsd-182928', 'icsd-182929', 'icsd-182930']"
5.0,3.0,AcTiO3,63.7995700747627,8.403352518165326,Cubic,Pm-3m,221.0,m-3m,0.1,1.16.2,mp-865927,-8.979745746,-3.6083991144166676,,,
5.0,3.0,UTiO3,60.35636391639875,9.186176531949698,Cubic,Pm-3m,221.0,m-3m,0.1,1.16.2,mp-1187736,-9.912026782,-3.1066331499166666,,,
5.0,3.0,NpTiO3,60.159657548892305,9.187812747477974,Cubic,Pm-3m,221.0,m-3m,0.1,1.16.2,mp-977152,-10.281836402,-3.145168835666668,,,
5.0,3.0,PuTiO3,60.121389727310586,9.386999278252842,Cubic,Pm-3m,221.0,m-3m,0.1,1.16.2,mp-1186812,-10.71928681,-3.318607513916666,,,
5.0,2.0,V2N3,43.03172863294846,5.5530355611111215,Trigonal,P-3m1,164.0,-3m,0.1,1.16.2,mp-1069841,-9.613063413999999,-0.9776040309999999,,,['icsd-182700']
30.0,2.0,V2O3,315.0324308093384,4.740151748367431,Monoclinic,P2_1/m,11.0,2/m,0.1,1.16.2,mp-776630,-9.076242698,-2.4746670432500006,,,
10.0,2.0,V2O3,148.9423786781239,3.342011725040926,Monoclinic,C2/c,15.0,2/m,0.1,1.16.2,mp-1178852,-8.82836001,-2.2267843552500013,,,
10.0,2.0,V2O3,111.7719144841979,4.453419073967361,Monoclinic,C2/c,15.0,2/m,0.1,1.16.2,mp-1178873,-8.891055607999999,-2.2894799532500003,,,
40.0,2.0,V2O3,438.79860992930867,4.537545604148263,Cubic,Ia-3,206.0,m-3,0.1,1.16.2,mp-21579,-9.136886724250001,-2.5353110695000014,,,['icsd-260212']
20.0,2.0,V2O3,236.6572492306097,4.20665056757022,Monoclinic,P2_1/c,14.0,2/m,0.1,1.16.2,mp-776688,-9.0415046165,-2.43992896175,,,
10.0,2.0,V2O3,107.39249813425457,4.635027441819093,Monoclinic,C2/c,15.0,2/m,0.1,1.16.2,mp-715514,-9.125666534,-2.524090879250001,,,"['icsd-95762', 'icsd-6286', 'icsd-95763', 'icsd-97442']"
10.0,2.0,V2O3,205.94685116250807,2.4169691019213433,Monoclinic,Cc,9.0,m,0.1,1.16.2,mp-553955,-8.433890807000001,-1.8323151522500012,,,
40.0,2.0,V2O3,423.2365992301684,4.704386877724395,Orthorhombic,Pbca,61.0,mmm,0.1,1.16.2,mp-780654,-9.10616542375,-2.5045897690000003,,,
15.0,2.0,V2O3,158.04666524772614,4.724242442422593,Monoclinic,C2/m,12.0,2/m,0.1,1.16.2,mp-777698,-9.053483486000001,-2.451907831250001,,,
20.0,2.0,V2O3,242.80885545811856,4.10007431531783,Orthorhombic,Cmcm,63.0,mmm,0.1,1.16.2,mp-1043388,-8.901350193,-2.299774538250001,,,
40.0,2.0,V2O3,438.79132983957516,4.537620887630232,Triclinic,P-1,2.0,-1,0.1,1.16.2,mp-796380,-6.223016353499999,0.3785593012499994,,,
15.0,2.0,V2O3,156.77310112165154,4.762620363472198,Triclinic,P1,1.0,1,0.1,1.16.2,mp-1272087,-9.051012390666667,-2.449436735916667,,,
10.0,2.0,V2O3,100.55809695231142,4.950045704761461,Trigonal,R-3c,167.0,-3m,0.1,1.16.2,mp-18937,-9.12822955,-2.5266538952500013,,,"['icsd-1871', 'icsd-1874', 'icsd-94768', 'icsd-1473', 'icsd-1872', 'icsd-64796', 'icsd-64786', 'icsd-201106', 'icsd-201109', 'icsd-647605', 'icsd-647614', 'icsd-1873', 'icsd-201108', 'icsd-25780', 'icsd-201107', 'icsd-95760', 'icsd-647629', 'icsd-647636', 'icsd-95761', 'icsd-1869', 'icsd-1870']"
10.0,2.0,V2O3,186.76707473200148,2.665176271631598,Trigonal,R-3c,167.0,-3m,0.1,1.16.2,mp-552113,-8.402315691,-1.8007400362500008,,,['icsd-33641']
20.0,3.0,VCrO3,198.97637091413105,5.038483540473991,Triclinic,P1,1.0,1,0.1,1.16.2,mp-770849,-9.155606201,-2.4402022662499987,,,
20.0,3.0,VCrO3,198.97723319771274,5.03846170580696,Triclinic,P1,1.0,1,0.1,1.16.2,mp-755281,-9.154426213499999,-2.4390222787499996,,,
20.0,3.0,VCrO3,210.11675665237954,4.771343255848526,Triclinic,P1,1.0,1,0.1,1.16.2,mp-1373421,-7.601998720999999,-0.8865947862499993,,,
20.0,3.0,VCrO3,198.97063809352017,5.038628711251776,Triclinic,P-1,2.0,-1,0.1,1.16.2,mp-1101715,-9.157033004499999,-2.441629069749999,,,
10.0,3.0,VCrO3,99.6975000973038,5.0279052574820255,Trigonal,R3c,161.0,3m,0.1,1.16.2,mp-1216392,-9.159223562,-2.4438196272499995,,,
20.0,3.0,VCrO3,209.8286353801246,4.7778949139992335,Triclinic,P1,1.0,1,0.1,1.16.2,mp-1370790,-7.603256185499999,-0.8878522507499994,,,
20.0,3.0,VCrO3,209.63491910610674,4.782309999063952,Triclinic,P1,1.0,1,0.1,1.16.2,mp-1376270,-7.866720796999999,-1.151316862249999,,,
20.0,3.0,VCrO3,209.94192075432676,4.775316745659694,Triclinic,P1,1.0,1,0.1,1.16.2,mp-1375284,-7.518737944,-0.8033340092499998,,,
20.0,3.0,VCrO3,210.11675665237954,4.771343255848526,Triclinic,P1,1.0,1,0.1,1.16.2,mp-803450,-6.4477418455,0.26766208924999974,,,
20.0,3.0,VCrO3,210.9551688388535,4.7523802109818245,Triclinic,P-1,2.0,-1,0.1,1.16.2,mp-1374293,-7.801229787999999,-1.085825853249999,,,
20.0,3.0,VCrO3,210.22288555063435,4.768934491447769,Triclinic,P1,1.0,1,0.1,1.16.2,mp-806072,-6.558937358,0.15646657675000028,,,
20.0,3.0,VCrO3,199.08241372395443,5.035799752680351,Triclinic,P1,1.0,1,0.1,1.16.2,mp-757023,-9.1534814305,-2.4380774957499995,,,
20.0,3.0,VCrO3,198.94886664348786,5.0391801004356855,Monoclinic,C2,5.0,2,0.1,1.16.2,mp-770855,-9.155188710000001,-2.4397847752499997,,,
20.0,3.0,VCrO3,199.00476310146337,5.03776469552615,Triclinic,P1,1.0,1,0.1,1.16.2,mp-770779,-9.157353598499999,-2.441949663749999,,,
20.0,3.0,VCrO3,210.7371721527877,4.757296302084004,Triclinic,P1,1.0,1,0.1,1.16.2,mp-1337287,-7.893011195,-1.1776072602499994,,,
20.0,3.0,VCrO3,198.9786550917356,5.038425701148166,Triclinic,P1,1.0,1,0.1,1.16.2,mp-770843,-9.1555475535,-2.4401436187499996,,,
20.0,3.0,VCrO3,198.72935474740822,5.044746263421216,Triclinic,P1,1.0,1,0.1,1.16.2,mp-754036,-9.155962027,-2.4405580922499994,,,
20.0,3.0,VCrO3,199.09235298037535,5.035548351236363,Triclinic,P1,1.0,1,0.1,1.16.2,mp-770778,-9.153762243,-2.4383583082499998,,,
20.0,3.0,VCrO3,209.8286353801246,4.7778949139992335,Triclinic,P1,1.0,1,0.1,1.16.2,mp-807999,-6.533004731,0.18239920375000054,,,
20.0,3.0,VCrO3,199.00531148478836,5.037750813353188,Triclinic,P1,1.0,1,0.1,1.16.2,mp-753988,-9.155518006,-2.4401140712499996,,,
20.0,3.0,VCrO3,209.94192075432676,4.775316745659694,Triclinic,P1,1.0,1,0.1,1.16.2,mp-806062,-6.5462284725,0.16917546224999996,,,
20.0,3.0,MnVO3,209.74885247726263,4.8728754228681534,Orthorhombic,Pnma,62.0,mmm,0.1,1.16.2,mp-1106224,-8.902717021499999,-2.2855195223362075,,,['icsd-185418']
10.0,3.0,VCoO3,103.06190016310505,5.087313726796352,Triclinic,P1,1.0,1,0.1,1.16.2,mp-1277045,-8.135140590999999,-1.9286825912499999,,,
10.0,3.0,VCoO3,104.84497603539772,5.0007948805526246,Triclinic,P-1,2.0,-1,0.1,1.16.2,mp-1206118,-8.212322635,-2.00586463525,,,
5.0,3.0,VCoO3,53.84456178860735,4.868720275483928,Cubic,Pm-3m,221.0,m-3m,0.1,1.16.2,mp-1187746,-7.6933873340000005,-1.4869293342500007,,,
10.0,3.0,VNiO3,102.60262241030391,5.102324182173681,Trigonal,R3,146.0,3,0.1,1.16.2,mp-1273627,-7.859973411,-1.9191516342500001,,,
20.0,3.0,VCuO3,196.87983138529862,5.481797718239921,Cubic,Im-3,204.0,m-3,0.1,1.16.2,mp-1105167,-7.3433243035,-1.7386885287500007,,,"['icsd-195439', 'icsd-195438']"
10.0,3.0,VCuO3,102.93500469095072,5.242412013754299,Trigonal,R-3,148.0,-3,0.1,1.16.2,mp-504580,-7.401524406,-1.7968886312500003,,,['icsd-19046']
5.0,3.0,VCuO3,81.01951592977308,3.3302328397977545,Monoclinic,Cm,8.0,m,0.1,1.16.2,mp-2371810,-7.4017372219999995,-1.7971014472500002,,,
5.0,3.0,VCuO3,80.04269880900075,3.3708740038573914,Triclinic,P1,1.0,1,0.1,1.16.2,mp-562987,-7.389398718000001,-1.7847629432500014,10.177283406666668,7.486282526666668,['icsd-9414']
20.0,3.0,VZnO3,202.89708302378835,5.380214103185048,Orthorhombic,Pnma,62.0,mmm,0.1,1.16.2,mp-1378086,-7.1620193815,-2.125276218750001,,,
5.0,3.0,VZnO3,54.02571356190828,5.05143604595241,Cubic,Pm-3m,221.0,m-3m,0.1,1.16.2,mp-1016931,-6.7178567099999995,-1.6811135472499998,,,
20.0,3.0,VGaO3,207.87196926224522,5.389298103486119,Orthorhombic,Pnma,62.0,mmm,0.1,1.16.2,mp-755580,-7.700893132500001,-2.3104794872500007,,,
20.0,3.0,VGeO3,239.22716142895217,4.763920504405174,Monoclinic,C2/c,15.0,2/m,0.1,1.16.2,mp-755199,-7.869839513500001,-2.160439501750001,,,
20.0,3.0,RbVO3,343.46341930871506,3.566212186908948,Orthorhombic,Pbcm,57.0,mmm,0.1,1.16.2,mp-19031,-7.391282189,-2.410380933750001,,,['icsd-1488']
5.0,3.0,RbVO3,60.014684858942445,5.102348844183125,Cubic,Pm-3m,221.0,m-3m,0.1,1.16.2,mp-1076638,-7.033888604,-2.052987348750001,,,
5.0,3.0,RbVF3,73.12138287356564,4.392090674799269,Cubic,Pm-3m,221.0,m-3m,0.1,1.16.2,mp-556424,-6.19578712,-3.0360117110000004,6.424073709999992,2.3738782199999964,['icsd-28146']
10.0,3.0,RbVCl3,263.03230905853485,3.0652222742139075,Hexagonal,P6_3/mmc,194.0,6/mmm,0.1,1.16.2,mp-23319,-4.993331595999999,-1.8713215714999998,,,"['icsd-201834', 'icsd-201830']"
30.0,3.0,RbVBr3,929.5890108093449,4.031227382216596,Trigonal,P-3c1,165.0,-3m,0.1,1.16.2,mp-568136,-4.543947785,-1.5992427585000002,,,['icsd-201836']
30.0,3.0,RbVBr3,933.5879397779928,4.013960029810795,Hexagonal,P6_3cm,185.0,6mm,0.1,1.16.2,mp-29314,-4.543966395666667,-1.5992613691666662,12.448859256703107,3.459322576666667,['icsd-201835']
10.0,3.0,RbVBr3,310.2622825941334,4.026039563741597,Hexagonal,P6_3/mmc,194.0,6/mmm,0.1,1.16.2,mp-570099,-4.543628569,-1.5989235425000001,14.884903626850933,3.4963637133333325,['icsd-201831']
30.0,3.0,RbVI3,1198.3871081265884,4.299290887016229,Hexagonal,P6_3cm,185.0,6mm,0.1,1.16.2,mp-672346,-4.028109695666667,-1.1312018571666669,,,"['icsd-26455', 'icsd-26456']"
5.0,3.0,SrVO3,59.35966561911505,5.21885807260035,Cubic,Pm-3m,221.0,m-3m,0.1,1.16.2,mp-18717,-8.00291119,-2.880218058583334,,,"['icsd-96291', 'icsd-88982', 'icsd-108826']"
20.0,3.0,YVO3,224.27321131213782,5.563301518482908,Orthorhombic,Pnma,62.0,mmm,0.1,1.16.2,mp-18883,-9.353054021000002,-3.274965357583335,,,"['icsd-250766', 'icsd-250767', 'icsd-155477', 'icsd-95579', 'icsd-190290', 'icsd-155480', 'icsd-246953', 'icsd-95577', 'icsd-95578', 'icsd-155476', 'icsd-246954', 'icsd-250765', 'icsd-155478', 'icsd-155479', 'icsd-185836']"
5.0,3.0,YVO3,59.63050756183239,5.230961248124892,Tetragonal,P4/mmm,123.0,4/mmm,0.1,1.16.2,mp-1504764,-8.999762156,-2.9216734925833334,,,
10.0,3.0,YVO3,132.7156948137553,4.700647872878923,Hexagonal,P6_3/mmc,194.0,6/mmm,0.1,1.16.2,mp-1402500,-9.199071232,-3.120982568583334,,,
30.0,3.0,YVO3,394.4852380193316,4.744282080030755,Hexagonal,P6_3cm,185.0,6mm,0.1,1.16.2,mp-1375509,-9.272332514333334,-3.1942438509166675,,,
20.0,3.0,VMoN3,269.4254658905697,4.656998335423136,Triclinic,P-1,2.0,-1,0.1,1.16.2,mp-1246912,-9.447640695,-0.4598325040000006,,,
20.0,3.0,VAgO3,248.92808517080482,5.51826198310841,Monoclinic,Cm,8.0,m,0.1,1.16.2,mp-559736,-7.094997352,-1.7436917105833332,,,['icsd-82079']
40.0,3.0,VAgO3,609.6622395004396,4.5062669128125785,Triclinic,P-1,2.0,-1,0.1,1.16.2,mp-1100926,-7.0310032655,-1.679697624083333,,,
20.0,3.0,VAgO3,278.1337865832349,4.938811662548386,Monoclinic,C2/c,15.0,2/m,0.1,1.16.2,mp-624691,-7.0859557935,-1.7346501520833328,,,['icsd-50645']
20.0,3.0,VAgO3,287.6306546239166,4.7757440552437025,Monoclinic,C2/c,15.0,2/m,0.1,1.16.2,mp-1178815,-7.0974000565,-1.7460944150833329,11.07336870333333,5.052431486666666,
20.0,3.0,VCdO3,218.64374944563582,6.420601457724622,Orthorhombic,Pnma,62.0,mmm,0.1,1.16.2,mp-22649,-6.9790683805,-2.00969598775,,,['icsd-172795']
5.0,3.0,VCdO3,56.628589540333415,6.197507247700209,Cubic,Pm-3m,221.0,m-3m,0.1,1.16.2,mp-1016904,-6.763391212,-1.7940188192500002,,,
20.0,3.0,VCdO3,269.95413520633264,5.200232903785855,Orthorhombic,Pnma,62.0,mmm,0.1,1.16.2,mp-556857,-7.049248041,-2.07987564825,10.75429401333333,4.734023656666667,['icsd-88387']
20.0,3.0,VSnO3,239.54344004967217,6.035077889986486,Orthorhombic,Pnma,62.0,mmm,0.1,1.16.2,mp-1207852,-7.545711717500001,-1.9590029057500011,,,
20.0,3.0,CsVO3,387.56219181813697,3.973431260935961,Orthorhombic,Pbcm,57.0,mmm,0.1,1.16.2,mp-504651,-7.3827109065,-2.418835991336208,,,['icsd-1489']
10.0,3.0,CsVCl3,281.0246095963259,3.42958092661,Hexagonal,P6_3/mmc,194.0,6/mmm,0.1,1.16.2,mp-22977,-5.007629048,-1.9026453635862068,15.166065550003665,3.084202916666667,"['icsd-201828', 'icsd-15932', 'icsd-201832']"
10.0,3.0,CsVBr3,326.19875647830327,4.312316786436811,Hexagonal,P6_3/mmc,194.0,6/mmm,0.1,1.16.2,mp-23038,-4.563302533,-1.6356238465862074,9.636973080000589,3.476900763333333,"['icsd-201829', 'icsd-201833']"
10.0,3.0,CsVI3,407.9054999130535,4.596528051662015,Hexagonal,P6_3/mmc,194.0,6/mmm,0.1,1.16.2,mp-22991,-4.053066899,-1.1731854005862075,15.518857086666673,4.0733778066666675,"['icsd-26453', 'icsd-26454']"
25.0,3.0,BaVO3,339.45338739887467,5.778850647108947,Trigonal,P-3m1,164.0,-3m,0.1,1.16.2,mp-19150,-7.999602808000001,-2.8310133792500016,,,"['icsd-78167', 'icsd-78168']"
5.0,3.0,BaVO3,63.16295592953194,6.211395266623796,Cubic,Pm-3m,221.0,m-3m,0.1,1.16.2,mp-1017465,-7.959825548,-2.7912361192500006,,,['icsd-191203']
10.0,3.0,BaVS3,225.71113273783448,4.185551231275974,Orthorhombic,C222_1,20.0,222,0.1,1.16.2,mp-555857,-6.348760177,-1.666314054875,,,['icsd-63230']
20.0,3.0,BaVS3,470.98230335403633,4.011724019419855,Orthorhombic,Cmc2_1,36.0,mm2,0.1,1.16.2,mp-3451,-6.3525493420000005,-1.6701032198750005,,,"['icsd-154183', 'icsd-52692', 'icsd-63229', 'icsd-154184', 'icsd-154182', 'icsd-616099']"
10.0,3.0,BaVS3,226.60022021533962,4.169128823642622,Hexagonal,P6_3/mmc,194.0,6/mmm,0.1,1.16.2,mp-4227,-6.338342442,-1.655896319875,,,"['icsd-616097', 'icsd-15537', 'icsd-8194', 'icsd-154181', 'icsd-8193', 'icsd-616098', 'icsd-23194', 'icsd-62711']"
20.0,3.0,BaVS3,449.9130824709808,4.199591193725612,Monoclinic,Cm,8.0,m,0.1,1.16.2,mp-542818,-6.3512208105,-1.668774688375,,,
10.0,3.0,BaVSe3,257.4942130766846,5.483429587958488,Hexagonal,P6_3/mmc,194.0,6/mmm,0.1,1.16.2,mp-27363,-5.777679637,-1.47955654840625,,,['icsd-10486']
10.0,3.0,BaVSe3,254.6217980166793,5.545288729051739,Orthorhombic,Cmc2_1,36.0,mm2,0.1,1.16.2,mp-676597,-5.792741587,-1.4946184984062498,,,
10.0,3.0,LaVN3,131.38653390551372,5.860940486792446,Triclinic,P1,1.0,1,0.1,1.16.2,mp-989403,-9.060196033999999,-1.2543164439999983,,,
5.0,3.0,LaVO3,61.633057964794716,6.408106455024793,Cubic,Pm-3m,221.0,m-3m,0.1,1.16.2,mp-19053,-8.874802302,-3.1028064402500006,,,['icsd-28925']
20.0,3.0,LaVO3,241.48199884564238,6.5421223689567825,Orthorhombic,Pnma,62.0,mmm,0.1,1.16.2,mp-19350,-9.052061689,-3.28006582725,,,"['icsd-63520', 'icsd-86557', 'icsd-185831', 'icsd-73899', 'icsd-73901', 'icsd-73898', 'icsd-73900', 'icsd-86554']"
20.0,3.0,LaVS3,396.38887929631903,4.793109904752426,Orthorhombic,Pnma,62.0,mmm,0.1,1.16.2,mp-1211380,-7.140139033500001,-1.8542864783750006,,,
5.0,3.0,CeVO3,60.2489661693708,6.588682830299179,Cubic,Pm-3m,221.0,m-3m,0.1,1.16.2,mp-22593,-8.936921746,-2.9655094742500006,,,['icsd-28926']
20.0,3.0,CeVO3,238.20798811685643,6.665793739018934,Orthorhombic,Pnma,62.0,mmm,0.1,1.16.2,mp-18769,-9.1987452875,-3.2273330157500006,,,"['icsd-165721', 'icsd-99834', 'icsd-185832', 'icsd-63521', 'icsd-162748']"
20.0,3.0,PrVO3,239.62576821509148,6.648298263782472,Orthorhombic,Pnma,62.0,mmm,0.1,1.16.2,mp-1209329,-8.9472159065,-3.20624031475,,,['icsd-185833']
5.0,3.0,PrVO3,60.972474715206346,6.532060516745839,Cubic,Pm-3m,221.0,m-3m,0.1,1.16.2,mp-1069346,-8.735173972000002,-2.994198380250001,,,['icsd-28927']
20.0,3.0,NdVO3,238.60733896143174,6.7694935937820935,Orthorhombic,Pnma,62.0,mmm,0.1,1.16.2,mp-541129,-8.9602356215,-3.2218116942500004,,,"['icsd-185834', 'icsd-63522']"
5.0,3.0,NdVO3,60.39214532814181,6.686510488045713,Cubic,Pm-3m,221.0,m-3m,0.1,1.16.2,mp-19253,-8.737238134,-2.9988142067500005,,,['icsd-28928']
5.0,3.0,SmVO3,59.5057310357224,6.9568406930946685,Cubic,Pm-3m,221.0,m-3m,0.1,1.16.2,mp-20702,-8.679960838000001,-2.951449170250001,,,['icsd-28929']
20.0,3.0,SmVO3,233.71479456005082,7.085078065698469,Orthorhombic,Pnma,62.0,mmm,0.1,1.16.2,mp-1188225,-8.9790061535,-3.250494485750001,,,"['icsd-187200', 'icsd-187199', 'icsd-187198']"
5.0,3.0,EuVO3,56.99431798498433,7.310121614478355,Cubic,Pm-3m,221.0,m-3m,0.1,1.16.2,mp-756315,-9.772729818,-2.9365350172500015,,,
20.0,3.0,EuVO3,227.9156307793317,7.312098681075076,Orthorhombic,Pnma,62.0,mmm,0.1,1.16.2,mp-1178351,-9.8038389225,-2.967644121750001,,,
20.0,3.0,GdVO3,229.68430934192185,7.408655933518536,Orthorhombic,Pnma,62.0,mmm,0.1,1.16.2,mp-541177,-10.853466169,-3.2534472802500005,,,['icsd-40391']
5.0,3.0,TbVO3,56.75255092161906,7.544947010877843,Cubic,Pm-3m,221.0,m-3m,0.1,1.16.2,mp-1187389,-8.60458872,-2.892921059250001,,,
20.0,3.0,TbVO3,226.45903361633887,7.563310371821145,Orthorhombic,Pnma,62.0,mmm,0.1,1.16.2,mp-554811,-9.004759297000001,-3.2930916362500016,,,"['icsd-155481', 'icsd-185835']"
20.0,3.0,DyVO3,224.4936902037986,7.735287972077501,Orthorhombic,Pnma,62.0,mmm,0.1,1.16.2,mp-22789,-9.005861854,-3.2997100452500012,,,['icsd-40392']
20.0,3.0,HoVO3,222.6308365086166,7.8725208706218845,Orthorhombic,Pnma,62.0,mmm,0.1,1.16.2,mp-19024,-9.006434828500002,-3.305158613750001,,,"['icsd-185837', 'icsd-10018']"
20.0,3.0,ErVO3,220.50361904722976,8.018613803040648,Orthorhombic,Pnma,62.0,mmm,0.1,1.16.2,mp-19205,-9.009617456500001,-3.3112792537500013,,,"['icsd-40393', 'icsd-161781', 'icsd-185838']"
20.0,3.0,TmVO3,218.70381555294156,8.135479325832177,Orthorhombic,Pnma,62.0,mmm,0.1,1.16.2,mp-755258,-9.002079601000002,-3.3221180755833344,,,['icsd-185839']
20.0,3.0,YbVO3,205.66391227117273,8.783902089281648,Orthorhombic,Pnma,62.0,mmm,0.1,1.16.2,mp-703673,-8.210997373000001,-3.1182812762500007,,,"['icsd-97784', 'icsd-185840', 'icsd-97783']"
5.0,3.0,LuVO3,57.22734779374253,7.947822037687013,Cubic,Pm-3m,221.0,m-3m,0.1,1.16.2,mp-973486,-8.455128082,-2.76614353725,,,
20.0,3.0,LuVO3,225.24094157379778,8.077266464533315,Orthorhombic,Pnma,62.0,mmm,0.1,1.16.2,mp-755583,-9.013287189500002,-3.324302644750001,,,"['icsd-185830', 'icsd-185841']"
20.0,3.0,VWN3,294.89011881155636,6.234727326229744,Triclinic,P-1,2.0,-1,0.1,1.16.2,mp-1247461,-9.9104276765,-0.5001234615000001,,,