nsites,nelements,formula_pretty,volume,density,crystal_system,symbol,number,point_group,symprec,version,material_id,energy_per_atom,formation_energy_per_atom,e_total,e_electronic,icsd
5.0,3.0,EuCdO3,72.1640053711473,7.187903433173979,Cubic,Pm-3m,221.0,m-3m,0.1,1.16.2,mp-1183878,-6.894096037999999,-1.690104499249999,,,
5.0,3.0,GdCdO3,70.87709295487406,7.442256580708544,Cubic,Pm-3m,221.0,m-3m,0.1,1.16.2,mp-1184471,-7.78714926,-1.8193336332499996,,,
5.0,3.0,YbCdO3,69.29733598081943,7.990284409775507,Cubic,Pm-3m,221.0,m-3m,0.1,1.16.2,mp-1187568,-4.994672274,-1.53415943925,,,
5.0,3.0,HfCdO3,68.82568084657431,8.176531700339828,Cubic,Pm-3m,221.0,m-3m,0.1,1.16.2,mp-1017446,-7.822235606,-2.6782066212499998,,,
20.0,3.0,HfCdO3,247.38275372750388,9.099346704813074,Orthorhombic,Pnma,62.0,mmm,0.1,1.16.2,mp-1212404,-8.087934108999999,-2.94390512425,,,
5.0,3.0,CdOsO3,61.29977114342224,9.498405606100683,Cubic,Pm-3m,221.0,m-3m,0.1,1.16.2,mp-1016882,-6.441248956,-1.0431842912500002,,,
5.0,3.0,CdIrO3,61.77813947332076,9.478265062669584,Cubic,Pm-3m,221.0,m-3m,0.1,1.16.2,mp-1016828,-5.760263306000001,-0.8399852912500002,,,
30.0,3.0,CdIrO3,388.28158042161505,9.048323853594393,Trigonal,R-3,148.0,-3,0.1,1.16.2,mp-2647004,-6.115731398666667,-1.1954533839166668,,,
5.0,3.0,TlCdN3,89.45916280761851,6.6603052181469495,Cubic,Pm-3m,221.0,m-3m,0.1,1.16.2,mp-1207995,-3.7670958619999992,1.8919076743333343,,,
5.0,3.0,TlCdF3,86.27465927655057,7.194373047437345,Trigonal,R3m,160.0,3m,0.1,1.16.2,mp-1412222,-4.094563175999999,-2.2905692141666667,,,
5.0,3.0,TlCdF3,86.5262629373115,7.173453033858041,Monoclinic,Cm,8.0,m,0.1,1.16.2,mp-998623,-4.09466794,-2.2906739781666667,,,
40.0,3.0,TlCdF3,678.6302714587923,7.316998483333884,Orthorhombic,Pbam,55.0,mmm,0.1,1.16.2,mp-998759,-4.1034652522499995,-2.2994712904166663,,,
20.0,3.0,TlCdCl3,535.2233003348425,5.251360210746544,Orthorhombic,Pnma,62.0,mmm,0.1,1.16.2,mp-28218,-3.2097191885000003,-1.4434906111666668,19.270043763333334,3.8580540233333327,['icsd-39807']
20.0,3.0,TlCdBr3,612.3731169494534,6.036192160507899,Orthorhombic,Pnma,62.0,mmm,0.1,1.16.2,mp-28219,-2.8421225505,-1.2531989711666665,,,['icsd-39808']
20.0,3.0,TlCdI3,777.8845487563913,5.955839094947377,Orthorhombic,Pnma,62.0,mmm,0.1,1.16.2,mp-27252,-2.4072553725000003,-0.866128981166667,,,['icsd-8009']
40.0,3.0,CdPbO3,577.0968158397645,8.462073206254711,Orthorhombic,Ibca,73.0,mmm,0.1,1.16.2,mp-685257,-5.27843203125,-1.3833114385000003,,,
10.0,3.0,CdBiO3,145.26917584693376,8.444817808315447,Trigonal,R3,146.0,3,0.1,1.16.2,mp-755478,-5.373882152,-1.4531931472500006,22.482024726674922,7.825325090000004,
40.0,2.0,In2O3,526.9797159082179,6.998712419580598,Cubic,Ia-3,206.0,m-3,0.1,1.16.2,mp-22598,-6.066513488,-1.9978267692499998,12.309749030004463,4.901521386666666,"['icsd-182789', 'icsd-640179', 'icsd-169420', 'icsd-14388', 'icsd-640178', 'icsd-182792', 'icsd-169426', 'icsd-187791', 'icsd-190344', 'icsd-169423', 'icsd-184331', 'icsd-169432', 'icsd-190345', 'icsd-14387', 'icsd-169429', 'icsd-181833', 'icsd-41265']"
40.0,2.0,In2O3,503.5571998402498,7.324251313979725,Orthorhombic,Pbca,61.0,mmm,0.1,1.16.2,mp-1194571,-6.02467241925,-1.9559857004999999,,,['icsd-426846']
20.0,2.0,In2O3,242.08435239453118,7.617550341674249,Orthorhombic,Pnma,62.0,mmm,0.1,1.16.2,mp-1105699,-5.8203355205000005,-1.7516488017500003,,,['icsd-181836']
20.0,2.0,In2O3,242.90847648661457,7.5917060119496025,Orthorhombic,Pnma,62.0,mmm,0.1,1.16.2,mp-644741,-5.8229233115,-1.75423659275,,,"['icsd-181835', 'icsd-162251']"
10.0,2.0,In2O3,128.16739438098492,7.194067376509535,Trigonal,R-3c,167.0,-3m,0.1,1.16.2,mp-22323,-6.037110398,-1.9684236792500003,,,"['icsd-187792', 'icsd-24325', 'icsd-16086']"
100.0,2.0,In2O3,1524.0647576060683,6.049906121422174,Triclinic,P1,1.0,1,0.1,1.16.2,mp-1245022,-5.4848203825,-1.4161336637499995,,,
20.0,2.0,In2O3,248.14891296534003,7.431383515891209,Orthorhombic,Pbcn,60.0,mmm,0.1,1.16.2,mp-1105681,-6.016995371,-1.9483086522500002,,,"['icsd-181834', 'icsd-236900', 'icsd-236901', 'icsd-425685']"
100.0,2.0,In2O3,1530.416305255208,6.024797746092476,Triclinic,P1,1.0,1,0.1,1.16.2,mp-1244879,-5.443019594899999,-1.3743328761499993,,,
100.0,2.0,In2O3,1482.8685446454754,6.21798118233682,Triclinic,P1,1.0,1,0.1,1.16.2,mp-1245202,-5.6541087496,-1.5854220308499998,,,
20.0,2.0,In2S3,661.7528439583206,3.2704361427326,Monoclinic,Cm,8.0,m,0.1,1.16.2,mp-684944,-4.257289597,-0.6747461848749999,,,
10.0,2.0,In2S3,223.14809383922722,4.849291744335146,Trigonal,R-3c,167.0,-3m,0.1,1.16.2,mp-22375,-4.394663788,-0.812120375875,,,['icsd-12148']
40.0,2.0,In2S3,961.988411199058,4.499472952568761,Tetragonal,I4_1/amd,141.0,4/mmm,0.1,1.16.2,mp-22216,-4.41735450575,-0.8348110936250002,,,"['icsd-23844', 'icsd-640346', 'icsd-183879', 'icsd-151645', 'icsd-151644', 'icsd-640360']"
10.0,2.0,In2S3,267.6199388656643,4.043458846173154,Monoclinic,Cc,9.0,m,0.1,1.16.2,mp-673633,-4.400154546,-0.8176111338750005,,,
5.0,2.0,In2S3,133.95019798052186,4.039225867273605,Orthorhombic,Imm2,44.0,mm2,0.1,1.16.2,mp-1223831,-4.397306822,-0.8147634098750004,,,
160.0,2.0,In2Cl3,4790.590746713635,3.726857772202804,Orthorhombic,Pnma,62.0,mmm,0.1,1.16.2,mp-667324,-3.5117979708125,-1.3020024828124999,,,['icsd-15509']
5.0,2.0,In2Se3,135.05335887356787,5.736014636401468,Trigonal,P-3m1,164.0,-3m,0.1,1.16.2,mp-1017565,-3.948847044,-0.75062666540625,,,['icsd-602266']
5.0,2.0,In2Se3,127.60575570964753,6.070792331316427,Trigonal,R-3m,166.0,-3m,0.1,1.16.2,mp-20830,-3.4696677659999997,-0.27144738740624985,,,"['icsd-17007', 'icsd-640512', 'icsd-640498', 'icsd-640489', 'icsd-640492']"
5.0,2.0,In2Se3,145.6578513188342,5.318409108605309,Trigonal,R3m,160.0,3m,0.1,1.16.2,mp-19907,-3.68262512,-0.4844047414062501,,,['icsd-17008']
30.0,2.0,In2Se3,1247.0216965429502,3.727287401694141,Hexagonal,P6_5,170.0,6,0.1,1.16.2,mp-672673,-3.592711264666667,-0.39449088607291666,,,
30.0,2.0,In2Se3,895.3792135737424,5.191105833931657,Hexagonal,P6_1,169.0,6,0.1,1.16.2,mp-612740,-4.000058423666666,-0.8018380450729163,14.405195643273197,7.717873936666667,
160.0,2.0,In2Br3,5834.918025841528,4.2742437792828385,Monoclinic,P2_1,4.0,2,0.1,1.16.2,mp-685174,-3.1537042275625002,-1.1212137375625002,,,
80.0,2.0,In2Br3,2978.489589541353,4.186662622920037,Orthorhombic,P2_12_12_1,19.0,222,0.1,1.16.2,mp-685014,-3.154800182875,-1.122309692875,,,
10.0,3.0,InSnCl3,369.28006003084545,3.056734997726825,Trigonal,R-3,148.0,-3,0.1,1.16.2,mp-998567,-3.7652072089999997,-1.3038340959999999,17.18594616868035,3.6293021933328853,
40.0,3.0,InSnCl3,1116.478354062945,4.044113454958426,Orthorhombic,Fmm2,42.0,mm2,0.1,1.16.2,mp-1224255,-3.7178246429999993,-1.2564515299999997,,,
10.0,3.0,InSnBr3,392.5375734843699,4.00386388952432,Trigonal,R3c,161.0,3m,0.1,1.16.2,mp-998555,-3.3938214340000004,-1.109753319,42.556545506678255,5.237251383333334,
5.0,3.0,InSnBr3,210.5433445485441,3.7324072606654997,Triclinic,P1,1.0,1,0.1,1.16.2,mp-998398,-3.383548804,-1.099480689,,,
40.0,3.0,InSnBr3,1271.902423816932,4.942728266965806,Orthorhombic,Fmm2,42.0,mm2,0.1,1.16.2,mp-1224379,-3.3507206607500004,-1.06665254575,,,
5.0,3.0,InSbO3,69.2358588741692,6.825218971911616,Cubic,Pm-3m,221.0,m-3m,0.1,1.16.2,mp-1184765,-5.761112204,-1.4169619832499998,,,
20.0,3.0,InSbS3,490.59485125450334,4.505408610764415,Orthorhombic,Pnma,62.0,mmm,0.1,1.16.2,mp-21365,-4.558010144500001,-0.7000032303750003,29.00997902333333,8.545361846666667,['icsd-300207']
20.0,3.0,InSbSe3,576.0683830272766,5.459042909196263,Orthorhombic,Pnma,62.0,mmm,0.1,1.16.2,mp-1212011,-4.1367989175,-0.6631150369062496,,,
5.0,3.0,CsInF3,102.12922248166248,4.954480504673031,Cubic,Pm-3m,221.0,m-3m,0.1,1.16.2,mp-998322,-4.528598134,-2.652293533086207,,,
10.0,3.0,CsInF3,206.7003705766098,4.895949052546788,Cubic,Fm-3m,225.0,m-3m,0.1,1.16.2,mp-1112960,-4.635006777999999,-2.7587021770862066,,,
10.0,3.0,CsInCl3,334.5962553225378,3.5144908816190266,Cubic,Fm-3m,225.0,m-3m,0.1,1.16.2,mp-1112961,-3.655730465,-1.8171912485862065,,,
5.0,3.0,CsInBr3,192.51406065242793,4.204397370159399,Tetragonal,P4mm,99.0,4mm,0.1,1.16.2,mp-998323,-3.2428760339999996,-1.5816418155862066,,,
5.0,3.0,CsInBr3,184.33120029498258,4.39103965595892,Cubic,Pm-3m,221.0,m-3m,0.1,1.16.2,mp-2649045,-3.242024946,-1.5807907275862072,,,
10.0,3.0,CsInBr3,382.1688493634601,4.235853401834922,Cubic,Fm-3m,225.0,m-3m,0.1,1.16.2,mp-1112338,-3.261870632,-1.6006364135862072,,,
10.0,3.0,CsInI3,483.70608328452926,4.314785346466761,Cubic,Fm-3m,225.0,m-3m,0.1,1.16.2,mp-1112643,-2.7974773080000004,-1.1840402775862071,,,
20.0,3.0,CsInI3,1195.9190145035407,3.490349923099644,Triclinic,P-1,2.0,-1,0.1,1.16.2,mp-998430,-2.8014681365,-1.188031106086207,,,
5.0,3.0,BaInO3,78.72164877180886,6.331161973233718,Cubic,Pm-3m,221.0,m-3m,0.1,1.16.2,mp-1183288,-6.066852474,-2.1647075132499998,,,
10.0,3.0,BaInO3,158.57786982262536,6.285864600550045,Orthorhombic,Amm2,38.0,mm2,0.1,1.16.2,mp-1227991,-6.046394532,-2.1442495712499996,,,
20.0,3.0,LaInO3,281.8940253530813,7.1093471335158505,Orthorhombic,Pnma,62.0,mmm,0.1,1.16.2,mp-11623,-7.4361044739999995,-2.93055308025,,,"['icsd-193481', 'icsd-281549']"
20.0,3.0,PrInO3,277.68087306341386,7.265107067968361,Orthorhombic,Pnma,62.0,mmm,0.1,1.16.2,mp-1105130,-7.3359782035,-2.8614470797499996,,,['icsd-238839']
20.0,3.0,NdInO3,273.9447173906445,7.445036964779801,Orthorhombic,Pnma,62.0,mmm,0.1,1.16.2,mp-755138,-7.3473251585,-2.87534569925,,,
5.0,3.0,NdInO3,71.77626339859677,7.103770977716351,Cubic,Pm-3m,221.0,m-3m,0.1,1.16.2,mp-1186316,-6.937201969999999,-2.4652225107499994,,,
5.0,3.0,PmInO3,71.27102965144373,7.17178954663811,Cubic,Pm-3m,221.0,m-3m,0.1,1.16.2,mp-1186597,-6.906561624,-2.43810318675,,,
20.0,3.0,SmInO3,275.7659939007913,7.543226160313635,Orthorhombic,Pnma,62.0,mmm,0.1,1.16.2,mp-752437,-7.3619454195000005,-2.8998782197500006,,,
20.0,3.0,EuInO3,279.6165782496858,7.477451054785569,Orthorhombic,Pnma,62.0,mmm,0.1,1.16.2,mp-1212795,-8.079665279,-2.5099149462499994,,,
30.0,3.0,EuInO3,439.51987488208255,7.13557929045729,Hexagonal,P6_3cm,185.0,6mm,0.1,1.16.2,mp-1212980,-8.1493065,-2.5795561672500003,,,
5.0,3.0,EuInO3,73.62807472763184,7.0992596428165955,Cubic,Pm-3m,221.0,m-3m,0.1,1.16.2,mp-1184304,-7.791177356,-2.22142702325,,,
30.0,3.0,GdInO3,433.53891373129386,7.355497910311508,Hexagonal,P6_3cm,185.0,6mm,0.1,1.16.2,mp-1212640,-9.283875620666667,-2.950301199916667,,,
20.0,3.0,GdInO3,273.14026095991534,7.783289466450447,Orthorhombic,Pnma,62.0,mmm,0.1,1.16.2,mp-1212778,-9.2316398285,-2.8980654077500008,,,
20.0,3.0,TbInO3,269.41286852002736,7.932277564294916,Orthorhombic,Pnma,62.0,mmm,0.1,1.16.2,mp-769263,-7.380217258,-2.93499406525,,,
5.0,3.0,DyInO3,70.02291696360375,7.714620905876316,Cubic,Pm-3m,221.0,m-3m,0.1,1.16.2,mp-1183823,-6.7450798480000005,-2.30537250725,,,
30.0,3.0,DyInO3,420.1945036650193,7.713574371670154,Hexagonal,P6_3cm,185.0,6mm,0.1,1.16.2,mp-768149,-7.439521238,-2.9998138972500006,,,
20.0,3.0,DyInO3,265.3557805952959,8.143033596418817,Orthorhombic,Pnma,62.0,mmm,0.1,1.16.2,mp-1178360,-7.379810134,-2.94010279325,,,
30.0,3.0,HoInO3,415.99330878356733,7.849682515235159,Hexagonal,P6_3cm,185.0,6mm,0.1,1.16.2,mp-768267,-7.441156516666667,-3.006324769916667,,,
20.0,3.0,HoInO3,265.1425363558653,8.210465327551114,Orthorhombic,Pnma,62.0,mmm,0.1,1.16.2,mp-776984,-7.3792483065,-2.9444165597500005,,,
20.0,3.0,ErInO3,263.6689277873229,8.31501488044752,Orthorhombic,Pnma,62.0,mmm,0.1,1.16.2,mp-754208,-7.379971363,-2.94807762825,,,
30.0,3.0,ErInO3,411.7619876949493,7.986693005599136,Hexagonal,P6_3cm,185.0,6mm,0.1,1.16.2,mp-772217,-7.444365362666668,-3.0124716279166677,,,
20.0,3.0,TmInO3,261.98237593932004,8.411016415747941,Orthorhombic,Pnma,62.0,mmm,0.1,1.16.2,mp-1101263,-7.372834516,-2.959317458583334,,,
5.0,3.0,YbInO3,69.92714439586597,7.9754771294907005,Cubic,Pm-3m,221.0,m-3m,0.1,1.16.2,mp-1187569,-5.8906581000000005,-2.0643864712500006,,,
10.0,3.0,YbInBr3,318.72381283623497,5.497239679523347,Orthorhombic,Cmcm,63.0,mmm,0.1,1.16.2,mp-1205559,-3.6973090490000002,-1.9072336490000006,,,
5.0,3.0,TaInO3,67.27805888471052,8.484693137654336,Cubic,Pm-3m,221.0,m-3m,0.1,1.16.2,mp-1187260,-8.400880748,-2.510975249250001,,,
5.0,3.0,InOsO3,62.72537273464162,9.346249880328054,Cubic,Pm-3m,221.0,m-3m,0.1,1.16.2,mp-1184799,-6.90046919,-1.1366457312500002,,,
5.0,3.0,InPtO3,65.44390862037989,9.081170067199807,Cubic,Pm-3m,221.0,m-3m,0.1,1.16.2,mp-1184773,-5.468581876,-0.7360052392499995,,,
5.0,3.0,TlInCl3,158.854574053747,4.4484680882083,Monoclinic,Cm,8.0,m,0.1,1.16.2,mp-998732,-3.4493341479999997,-1.3173467766666664,,,
5.0,3.0,InPbCl3,190.93686574017815,3.725507596321793,Monoclinic,Cm,8.0,m,0.1,1.16.2,mp-998535,-3.769079058,-1.3670909019999997,,,
20.0,3.0,InBiO3,283.9517915160877,8.697008401781114,Orthorhombic,Pnma,62.0,mmm,0.1,1.16.2,mp-561102,-6.0765920465,-1.7901442477500005,,,['icsd-171757']
20.0,3.0,InBiO3,291.07493270155646,8.484176543805171,Orthorhombic,Pna2_1,33.0,mm2,0.1,1.16.2,mp-556892,-6.0875724380000005,-1.8011246392500007,,,['icsd-171756']
5.0,3.0,InBiO3,72.65678089350268,8.497249279925953,Cubic,Pm-3m,221.0,m-3m,0.1,1.16.2,mp-545379,-5.620489452,-1.3340416532500008,,,['icsd-158758']
10.0,3.0,InBiS3,254.96692474459132,5.47063466457686,Monoclinic,P2_1/m,11.0,2/m,0.1,1.16.2,mp-1078776,-4.54682357,-0.7465190778750006,,,['icsd-290195']
5.0,3.0,InBiSe3,146.7082456838383,6.346121737459678,Trigonal,R3m,160.0,3m,0.1,1.16.2,mp-1223842,-4.136142482,-0.7201610234062507,,,
5.0,3.0,PuInO3,71.40333675976989,9.46082107196941,Cubic,Pm-3m,221.0,m-3m,0.1,1.16.2,mp-1186797,-8.571502524,-2.19958488525,,,
20.0,2.0,Sn2O3,354.94434662395867,5.341097283859774,Orthorhombic,Cmcm,63.0,mmm,0.1,1.16.2,mp-1046850,-6.2233693635,-1.65152739475,,,
20.0,2.0,Sn2S3,496.657169252844,4.461675175551384,Orthorhombic,Pnma,62.0,mmm,0.1,1.16.2,mp-1509,-4.783424222,-0.6977255598749998,,,"['icsd-31995', 'icsd-97513', 'icsd-653956', 'icsd-15338', 'icsd-656782', 'icsd-651024']"
5.0,3.0,CsSnO3,78.07496246650327,6.372339584282168,Cubic,Pm-3m,221.0,m-3m,0.1,1.16.2,mp-984745,-5.480339814,-1.531331741836207,,,
10.0,3.0,CsSnF3,227.80237625838868,4.499163425834962,Trigonal,R3c,161.0,3m,0.1,1.16.2,mp-998457,-4.897409129,-2.7695269030862066,,,
20.0,3.0,CsSnF3,483.022706078646,4.243776148333527,Monoclinic,P2_1/c,14.0,2/m,0.1,1.16.2,mp-1105915,-4.9109760295000005,-2.783093803586207,,,['icsd-236903']
10.0,3.0,CsSnS3,322.2707978105111,3.584270415288076,Triclinic,P-1,2.0,-1,0.1,1.16.2,mp-561710,-4.468079328,-1.0052145624612074,9.603543843333332,4.5294923266666665,['icsd-73008']
20.0,3.0,CsSnCl3,707.7549033566643,3.35952776536324,Monoclinic,P2_1/c,14.0,2/m,0.1,1.16.2,mp-27394,-3.9016195679999996,-1.8115027265862065,,,['icsd-14199']
5.0,3.0,CsSnCl3,172.32384914406742,3.4494967770114764,Cubic,Pm-3m,221.0,m-3m,0.1,1.16.2,mp-1070375,-3.8977209679999993,-1.8076041265862064,,,['icsd-28082']
10.0,3.0,CsSnSe3,385.7905263288533,4.205213588085478,Triclinic,P-1,2.0,-1,0.1,1.16.2,mp-1542038,-4.047431396,-0.9688896639924571,11.457874780000003,5.673322196666668,"['icsd-408148', 'icsd-402842']"
10.0,3.0,CsSnSe3,362.33506353039013,4.477434636509233,Triclinic,P-1,2.0,-1,0.1,1.16.2,mp-613162,-4.043477457,-0.9649357249924571,,,"['icsd-402842', 'icsd-408148']"
5.0,3.0,CsSnBr3,199.07497852024176,4.098297206597591,Cubic,Pm-3m,221.0,m-3m,0.1,1.16.2,mp-27214,-3.5265669379999998,-1.6137550945862067,96.24287566333338,5.9047248800000025,['icsd-4071']
20.0,3.0,CsSnBr3,783.0209314899195,4.1677988189693025,Orthorhombic,Pnma,62.0,mmm,0.1,1.16.2,mp-1247749,-3.519272049,-1.6064602055862067,,,
20.0,3.0,CsSnI3,910.5575123531858,4.612588502664029,Orthorhombic,Pnma,62.0,mmm,0.1,1.16.2,mp-27381,-3.0762044355000002,-1.2111897800862068,26.4359869,4.706225993333334,"['icsd-262927', 'icsd-14070']"
10.0,3.0,CsSnI3,477.1049992694422,4.401575249605301,Tetragonal,P4/mbm,127.0,4/mmm,0.1,1.16.2,mp-616378,-3.06760978,-1.2025951245862068,126575.31682260007,8.043180843333335,"['icsd-262925', 'icsd-69995']"
5.0,3.0,CsSnI3,248.41075007279017,4.226897498662958,Cubic,Pm-3m,221.0,m-3m,0.1,1.16.2,mp-614013,-3.079453774,-1.214439118586207,169.58183408999986,7.351834980000003,"['icsd-262924', 'icsd-69997']"
20.0,3.0,CsSnI3,956.3187092803578,4.391869647363942,Orthorhombic,Pnma,62.0,mmm,0.1,1.16.2,mp-568570,-3.068394613,-1.203379957586207,,,['icsd-69996']
5.0,3.0,BaSnO3,71.13628093297905,7.097114448493584,Cubic,Pm-3m,221.0,m-3m,0.1,1.16.2,mp-3163,-6.741954234,-2.5882316482499994,22.509662690000003,5.467657350000009,"['icsd-184338', 'icsd-424820', 'icsd-185615', 'icsd-239582', 'icsd-181091', 'icsd-27049', 'icsd-43138', 'icsd-190601', 'icsd-188149', 'icsd-186899', 'icsd-180138']"
10.0,3.0,BaSnO3,147.10169950504223,6.864126368631641,Orthorhombic,Imma,74.0,mmm,0.1,1.16.2,mp-1178513,-6.741308211000001,-2.587585625250001,,,
20.0,3.0,BaSnS3,501.06558342019883,4.669209108430439,Orthorhombic,Pnma,62.0,mmm,0.1,1.16.2,mp-1183370,-5.0629518314999995,-1.3953725523750002,,,['icsd-616071']
5.0,3.0,LaSnO3,74.80253514100687,6.784308009954025,Cubic,Pm-3m,221.0,m-3m,0.1,1.16.2,mp-1185122,-7.205669656,-2.4485406372500007,,,
5.0,3.0,EuSnO3,67.71753422187594,7.814337063803226,Cubic,Pm-3m,221.0,m-3m,0.1,1.16.2,mp-862606,-8.37124034,-2.5499123822500005,,,
5.0,3.0,DySnO3,70.88038130870991,7.712473706428706,Cubic,Pm-3m,221.0,m-3m,0.1,1.16.2,mp-1184153,-6.844083535999999,-2.15279857025,,,
5.0,3.0,HoSnO3,82.41714412638174,6.681846650800492,Cubic,Pm-3m,221.0,m-3m,0.1,1.16.2,mp-973977,-6.82203584,-2.13562646825,,,
5.0,3.0,YbSnO3,65.53247144720568,8.608940673960896,Cubic,Pm-3m,221.0,m-3m,0.1,1.16.2,mp-1187515,-6.669144177999999,-2.591294924249999,,,
10.0,3.0,HfSnO3,173.89666541206324,6.592594463634103,Trigonal,R-3,148.0,-3,0.1,1.16.2,mp-776083,-8.757209739,-2.9958443352499997,,,
20.0,3.0,HfSnS3,492.4676860327046,5.305913745266324,Orthorhombic,Pnma,62.0,mmm,0.1,1.16.2,mp-8725,-6.707675757500001,-1.4324536603750004,21.719634456666665,7.805470136666666,['icsd-65667']
5.0,3.0,TaSnO3,67.54808347028872,8.546452732962305,Cubic,Pm-3m,221.0,m-3m,0.1,1.16.2,mp-8074,-8.50414018,-2.3626570562500007,,,"['icsd-247837', 'icsd-27118']"
40.0,3.0,TlSnF3,793.48417092851,6.363346285464172,Monoclinic,Cc,9.0,m,0.1,1.16.2,mp-676130,-4.77855820975,-2.3572278289166664,,,
10.0,3.0,TlSnI3,410.1888338873855,5.698343985692575,Orthorhombic,Cmcm,63.0,mmm,0.1,1.16.2,mp-1205533,-2.996075997,-0.8376131866666668,49.00982917333334,6.844322649999999,
40.0,3.0,SnPbO3,564.9412064548399,8.792266045783204,Orthorhombic,Pbam,55.0,mmm,0.1,1.16.2,mp-1101720,-6.314707455,-1.80225044325,,,
5.0,3.0,SnPbO3,70.32588763341295,8.828742790401577,Cubic,Pm-3m,221.0,m-3m,0.1,1.16.2,mp-978952,-6.2742112599999995,-1.76175424825,,,
20.0,3.0,SnPbO3,311.1573650366707,7.981674139050671,Cubic,Fd-3m,227.0,m-3m,0.1,1.16.2,mp-504543,-6.2356597515,-1.7232027397499998,,,['icsd-15308']
20.0,3.0,SnPbS3,504.4134958079262,5.558311572013088,Orthorhombic,Pnma,62.0,mmm,0.1,1.16.2,mp-1188095,-4.759090673,-0.7327769678750002,,,"['icsd-648477', 'icsd-23462']"
5.0,3.0,NpSnO3,71.96212269995561,9.315640123650487,Cubic,Pm-3m,221.0,m-3m,0.1,1.16.2,mp-1186346,-8.351908697999999,-1.9924251640000001,,,
40.0,2.0,Sb2O3,714.5475666275537,5.419679610801664,Orthorhombic,P2_12_12_1,19.0,222,0.1,1.16.2,mp-1202960,-6.339627706,-1.7200139832499999,,,['icsd-414463']
20.0,2.0,Sb2O3,353.1922938452045,5.4823094179633625,Cubic,Fd-3m,227.0,m-3m,0.1,1.16.2,mp-1999,-6.363627296500001,-1.74401357375,8.416059602407271,4.2466947066658,"['icsd-31102', 'icsd-240206', 'icsd-20091', 'icsd-16851', 'icsd-1944', 'icsd-183100', 'icsd-36145']"
20.0,2.0,Sb2O3,363.94226960848664,5.320375236937018,Orthorhombic,Cmcm,63.0,mmm,0.1,1.16.2,mp-1046803,-6.1119277365,-1.49231401375,,,
10.0,2.0,Sb2O3,179.38643227206794,5.3970342527436195,Orthorhombic,Pmmn,59.0,mmm,0.1,1.16.2,mp-560607,-6.2019755519999995,-1.5823618292499995,,,
20.0,2.0,Sb2O3,331.9848734985325,5.832523086050206,Orthorhombic,Pccn,56.0,mmm,0.1,1.16.2,mp-2136,-6.372114601,-1.7525008782499996,83.35602215666668,5.006959476666665,"['icsd-183101', 'icsd-240207', 'icsd-2033', 'icsd-105547']"
20.0,2.0,Sb2O3,353.951897730242,5.470544023966135,Monoclinic,P2_1/c,14.0,2/m,0.1,1.16.2,mp-1205345,-6.365620677,-1.7460069542499994,,,['icsd-183102']