nsites,nelements,formula_pretty,volume,density,crystal_system,symbol,number,point_group,symprec,version,material_id,energy_per_atom,formation_energy_per_atom,e_total,e_electronic,icsd
20.0,2.0,Pr2S3,488.706204242634,5.137654200236373,Orthorhombic,Pnma,62.0,mmm,0.1,1.16.2,mp-15179,-6.749949331000001,-2.355717108875001,,,"['icsd-83383', 'icsd-649260']"
40.0,2.0,Pr2S3,974.1882199370647,5.15465786082067,Tetragonal,I-42d,122.0,-42m,0.1,1.16.2,mp-32692,-6.73421501775,-2.3399827956250006,,,
40.0,2.0,Pr2Se3,1094.1215182398769,6.297756108096,Tetragonal,I-42d,122.0,-42m,0.1,1.16.2,mp-32689,-6.17881747975,-2.1689082911562503,,,
40.0,3.0,PrErS3,924.8304558905145,5.8082716682446796,Monoclinic,P2_1/m,11.0,2/m,0.1,1.16.2,mp-1199144,-6.724793504500001,-2.3731986713750004,,,['icsd-630955']
40.0,3.0,PrTmS3,918.1804137086365,5.874575919442772,Monoclinic,P2_1/m,11.0,2/m,0.1,1.16.2,mp-1201800,-6.70588549925,-2.372667343458333,,,['icsd-649289']
20.0,3.0,YbPrO3,303.46644434937485,7.922130899280516,Orthorhombic,Pnma,62.0,mmm,0.1,1.16.2,mp-1207533,-7.4260813415,-3.1939653077499996,,,
10.0,3.0,YbPrS3,247.49293513343403,5.503655228272782,Orthorhombic,Cmcm,63.0,mmm,0.1,1.16.2,mp-1079995,-5.765486371,-2.019513643875,,,['icsd-649302']
10.0,3.0,YbPrSe3,280.1979082381152,6.528748465967663,Orthorhombic,Cmcm,63.0,mmm,0.1,1.16.2,mp-11786,-5.273157256,-1.9115075624062499,,,['icsd-99667']
20.0,3.0,PrLuO3,283.33533637597355,8.530176157036786,Orthorhombic,Pnma,62.0,mmm,0.1,1.16.2,mp-21872,-8.746118878999999,-3.91773439725,,,['icsd-50758']
10.0,3.0,PrLuS3,242.90651494156577,5.633918482176531,Orthorhombic,Cmcm,63.0,mmm,0.1,1.16.2,mp-1206692,-6.565455062,-2.223213886875,,,
10.0,3.0,PrLuS3,231.7782856755934,5.904416369209879,Orthorhombic,Cmcm,63.0,mmm,0.1,1.16.2,mp-1078537,-6.717461856,-2.3752206808750005,,,
10.0,3.0,PrLuSe3,262.7259017084971,6.987287394207647,Orthorhombic,Cmcm,63.0,mmm,0.1,1.16.2,mp-13326,-6.116312676,-2.15839453440625,,,['icsd-249620']
5.0,3.0,PrHfO3,70.23453716496483,8.686255885744457,Cubic,Pm-3m,221.0,m-3m,0.1,1.16.2,mp-1186747,-9.369105913999999,-3.453473730249999,,,
20.0,3.0,PrHfO3,276.6598444711517,8.820581288157678,Orthorhombic,Pnma,62.0,mmm,0.1,1.16.2,mp-755462,-9.4575905385,-3.5419583547499998,,,
5.0,3.0,PrTlO3,100.2258791905031,6.516001688581736,Cubic,Pm-3m,221.0,m-3m,0.1,1.16.2,mp-754046,-6.1692862900000005,-1.772563282916667,,,
5.0,3.0,PrPbO3,93.4090064158571,7.041604055881917,Cubic,Pm-3m,221.0,m-3m,0.1,1.16.2,mp-1186471,-6.65096289,-1.9842390982499993,,,
5.0,3.0,PrBiO3,88.05187400348734,7.503595689079901,Cubic,Pm-3m,221.0,m-3m,0.1,1.16.2,mp-976727,-6.625798072,-1.9335058682500006,,,
15.0,2.0,Nd2O3,235.9927513598033,7.102868648668398,Monoclinic,C2/m,12.0,2/m,0.1,1.16.2,mp-556995,-8.629350667333334,-3.754078467583334,,,['icsd-160223']
40.0,2.0,Nd2O3,689.0489404160857,6.487107728262267,Cubic,Ia-3,206.0,m-3,0.1,1.16.2,mp-1045,-8.6575829175,-3.7823107177499993,,,"['icsd-96204', 'icsd-645664', 'icsd-191535', 'icsd-184534', 'icsd-645662', 'icsd-645657']"
5.0,2.0,Nd2O3,77.1681562687734,7.240575197487425,Trigonal,P-3m1,164.0,-3m,0.1,1.16.2,mp-2763,-8.62783696,-3.7525647602500003,,,"['icsd-191536', 'icsd-160208', 'icsd-169442', 'icsd-184526', 'icsd-32514', 'icsd-28180', 'icsd-645659', 'icsd-645658', 'icsd-645663', 'icsd-645656', 'icsd-96199']"
5.0,2.0,Nd2O3,105.90370277859341,5.275942423690727,Hexagonal,P6/mmm,191.0,6/mmm,0.1,1.16.2,mp-7954,-8.44253371,-3.567261510249999,,,
5.0,2.0,Nd2O3,95.79613014561164,5.832613879769652,Orthorhombic,Pmmm,47.0,mmm,0.1,1.16.2,mp-1220312,-7.475643456,-2.60037125625,,,
5.0,2.0,Nd2O3,91.1948195742304,6.1269032706480875,Cubic,Pm-3m,221.0,m-3m,0.1,1.16.2,mp-33029,-7.728758614,-2.85348641425,,,
20.0,2.0,Nd2S3,477.1530517042118,5.354881460522223,Orthorhombic,Pnma,62.0,mmm,0.1,1.16.2,mp-438,-6.7502540385000005,-2.361125145375,,,"['icsd-108979', 'icsd-645834', 'icsd-645850', 'icsd-72290']"
40.0,2.0,Nd2S3,951.6604468391114,5.369768259023699,Tetragonal,I-42d,122.0,-42m,0.1,1.16.2,mp-32586,-6.733834246000001,-2.3447053528750006,,,
40.0,2.0,Nd2Se3,1070.8416557522758,6.517396416166739,Tetragonal,I-42d,122.0,-42m,0.1,1.16.2,mp-32688,-6.16925854175,-2.1644526821562495,,,
40.0,3.0,NdTmS3,907.4488182593525,5.992861510362601,Monoclinic,P2_1/m,11.0,2/m,0.1,1.16.2,mp-1197152,-6.70279785475,-2.372131363458333,,,['icsd-645875']
5.0,3.0,YbNdO3,72.14559900703006,8.407471151446897,Cubic,Pm-3m,221.0,m-3m,0.1,1.16.2,mp-1187576,-6.9424378,-2.71287343075,,,
10.0,3.0,YbNdS3,244.8408227020823,5.608498648740481,Orthorhombic,Cmcm,63.0,mmm,0.1,1.16.2,mp-560374,-5.764931725,-2.0215106623750003,,,"['icsd-645883', 'icsd-660173', 'icsd-2062']"
10.0,3.0,YbNdSe3,277.10705780643195,6.641531670174805,Orthorhombic,Cmcm,63.0,mmm,0.1,1.16.2,mp-11787,-5.2694440149999995,-1.9103459859062497,,,['icsd-99668']
20.0,3.0,NdLuO3,285.39559924848294,8.54619906883572,Orthorhombic,Pnma,62.0,mmm,0.1,1.16.2,mp-1209937,-8.756736309999999,-3.9309034927499993,,,
10.0,3.0,NdLuS3,229.21721771129242,6.018697699146912,Orthorhombic,Cmcm,63.0,mmm,0.1,1.16.2,mp-1080801,-6.714395801,-2.3747062903750007,,,
10.0,3.0,NdLuS3,238.46183266574306,5.785366678690302,Orthorhombic,Cmcm,63.0,mmm,0.1,1.16.2,mp-1205870,-6.577354294,-2.237664783375,,,
10.0,3.0,NdLuSe3,259.74459154094785,7.110119240815493,Orthorhombic,Cmcm,63.0,mmm,0.1,1.16.2,mp-13327,-6.109102846000001,-2.1537363689062503,,,['icsd-249621']
5.0,3.0,NdTaO3,66.58145441296672,9.307297227030249,Cubic,Pm-3m,221.0,m-3m,0.1,1.16.2,mp-1186324,-9.27075171,-2.9775534707500007,,,
5.0,3.0,NdReO3,64.03615080453494,9.813618594340609,Cubic,Pm-3m,221.0,m-3m,0.1,1.16.2,mp-1186326,-8.621295616000001,-2.210747465750001,,,
5.0,3.0,NdBiO3,87.2729081436746,7.6340126024891735,Cubic,Pm-3m,221.0,m-3m,0.1,1.16.2,mp-974740,-6.585811799999999,-1.8960712607499992,,,
5.0,3.0,NdNpO3,90.83334720707875,7.847009308489407,Cubic,Pm-3m,221.0,m-3m,0.1,1.16.2,mp-1186312,-8.986175597999999,-2.4749769485,,,
15.0,2.0,Pm2O3,228.75599190180824,7.360583793338138,Monoclinic,C2/m,12.0,2/m,0.1,1.16.2,mp-556584,-8.674332289999999,-3.8061021342499988,,,['icsd-160224']
40.0,2.0,Pm2O3,667.4325651552468,6.7273818491002695,Cubic,Ia-3,206.0,m-3,0.1,1.16.2,mp-553921,-8.705094429499999,-3.83686427375,,,"['icsd-96205', 'icsd-647284']"
5.0,2.0,Pm2O3,74.86677377542615,7.496773097556724,Trigonal,P-3m1,164.0,-3m,0.1,1.16.2,mp-547622,-8.670065914,-3.80183575825,,,"['icsd-96200', 'icsd-647285', 'icsd-160209']"
10.0,2.0,Pm2S3,275.6430050331894,4.653061192308296,Trigonal,R-3c,167.0,-3m,0.1,1.16.2,mp-863259,-6.704393633,-2.322306783875,,,
20.0,2.0,Pm2Se3,527.3635445981281,6.636066010796556,Orthorhombic,Pnma,62.0,mmm,0.1,1.16.2,mp-1232181,-6.1771948825,-2.1794310669062504,,,
40.0,2.0,Pm2Se3,1047.9726410637431,6.678837130878813,Tetragonal,I-42d,122.0,-42m,0.1,1.16.2,mp-1232184,-6.1604819737500005,-2.1627181581562502,,,
5.0,3.0,PmEuO3,87.94284464083904,6.513585180689889,Cubic,Pm-3m,221.0,m-3m,0.1,1.16.2,mp-1186571,-8.818842669999999,-2.8493206187499993,,,
5.0,3.0,PmErO3,77.65505796283766,7.703569739272002,Cubic,Pm-3m,221.0,m-3m,0.1,1.16.2,mp-1186557,-8.14394997,-3.31228451675,,,
5.0,3.0,PmWO3,70.30692641341699,8.90032582576115,Cubic,Pm-3m,221.0,m-3m,0.1,1.16.2,mp-1186669,-8.78951494,-2.27976720275,,,
15.0,2.0,Sm2O3,224.5300687010258,7.736961882448128,Monoclinic,C2/m,12.0,2/m,0.1,1.16.2,mp-1745,-8.68567506,-3.8302273792499997,,,"['icsd-647449', 'icsd-42696', 'icsd-202903', 'icsd-261888', 'icsd-184527', 'icsd-160225', 'icsd-34291']"
10.0,2.0,Sm2O3,162.5049657304884,7.126676920073853,Cubic,Pn-3m,224.0,m-3m,0.1,1.16.2,mp-684768,-8.268924694,-3.413477013250001,,,
5.0,2.0,Sm2O3,86.54022531340051,6.691225869096116,Tetragonal,P-4m2,115.0,-42m,0.1,1.16.2,mp-1219167,-8.502345376,-3.64689769525,,,
5.0,2.0,Sm2O3,73.48116373552725,7.880389543347195,Trigonal,P-3m1,164.0,-3m,0.1,1.16.2,mp-10733,-8.67864739,-3.8231997092500007,,,"['icsd-77685', 'icsd-160210', 'icsd-647455']"
40.0,2.0,Sm2O3,654.3533566824561,7.079480081162786,Cubic,Ia-3,206.0,m-3,0.1,1.16.2,mp-218,-8.718163524249999,-3.8627158434999997,,,"['icsd-647461', 'icsd-184535', 'icsd-647450', 'icsd-40475', 'icsd-165779', 'icsd-96206', 'icsd-41271']"
20.0,2.0,Sm2S3,458.84211819880477,5.745705003776228,Orthorhombic,Pnma,62.0,mmm,0.1,1.16.2,mp-1403,-6.736602646500001,-2.367298272375001,,,"['icsd-650927', 'icsd-81360', 'icsd-72821', 'icsd-650930']"
40.0,2.0,Sm2S3,916.0698632452547,5.7558305545356285,Tetragonal,I-42d,122.0,-42m,0.1,1.16.2,mp-32645,-6.721007691750001,-2.351703317625001,,,
40.0,2.0,Sm2Se3,1034.2989774402554,6.904818213499399,Tetragonal,I-42d,122.0,-42m,0.1,1.16.2,mp-32594,-6.13753423975,-2.1525528991562504,,,
20.0,2.0,Sm2Se3,519.8506654821398,6.868940343675141,Orthorhombic,Pnma,62.0,mmm,0.1,1.16.2,mp-15081,-6.156675137500001,-2.1716937969062506,,,['icsd-78780']
20.0,3.0,SmGdS3,451.62413102088664,5.938867582409162,Orthorhombic,Pnma,62.0,mmm,0.1,1.16.2,mp-1219055,-8.620073582,-2.379261986875001,,,
20.0,3.0,TbSmO3,301.4292626823467,7.872935591575265,Orthorhombic,Pnma,62.0,mmm,0.1,1.16.2,mp-756118,-8.679432099,-3.8408284252500002,,,
20.0,3.0,SmDyO3,298.02426282522254,8.042555098332654,Orthorhombic,Pnma,62.0,mmm,0.1,1.16.2,mp-756452,-8.694715268500001,-3.8616274467500005,,,
20.0,3.0,SmHoO3,293.35952797041665,8.225467010815883,Orthorhombic,Pnma,62.0,mmm,0.1,1.16.2,mp-755717,-8.709853042,-3.8816408142500003,,,
20.0,3.0,SmErO3,290.47141479305986,8.360501076547395,Orthorhombic,Pnma,62.0,mmm,0.1,1.16.2,mp-754203,-8.72604912,-3.900774904250001,,,
20.0,3.0,SmTmO3,288.6300180537114,8.452390361659015,Orthorhombic,Pnma,62.0,mmm,0.1,1.16.2,mp-776439,-8.733400844,-3.926503305583334,,,
20.0,3.0,YbSmO3,296.646228814901,8.315915194050714,Orthorhombic,Pna2_1,33.0,mm2,0.1,1.16.2,mp-752596,-7.470651125000001,-3.250999015250001,,,
10.0,3.0,YbSmSe3,272.3003834004546,6.833386105567229,Orthorhombic,Cmcm,63.0,mmm,0.1,1.16.2,mp-11788,-5.256558892,-1.9073731224062507,,,['icsd-99669']
20.0,3.0,SmLuO3,281.82743897260025,8.798590817220292,Orthorhombic,Pnma,62.0,mmm,0.1,1.16.2,mp-1101371,-8.7701539355,-3.954233377749999,,,
20.0,3.0,SmLuSe3,521.8042975042365,7.1564507343553,Monoclinic,P2_1/m,11.0,2/m,0.1,1.16.2,mp-1208832,-6.094963227,-2.1495090094062497,,,
20.0,3.0,SmTlO3,299.2016143348699,8.940700349866306,Orthorhombic,Pnma,62.0,mmm,0.1,1.16.2,mp-754787,-6.794826388500001,-2.4105673054166674,,,
20.0,3.0,SmBiS3,485.9333540089203,6.22665080862403,Orthorhombic,Pnma,62.0,mmm,0.1,1.16.2,mp-1219113,-5.698497573,-1.5048125998750002,,,
5.0,3.0,SmPuO3,82.5192836183423,8.90159294072665,Cubic,Pm-3m,221.0,m-3m,0.1,1.16.2,mp-981250,-9.709650824,-2.944352704250001,,,
40.0,2.0,Eu2O3,644.9683935896842,7.2485685744391395,Cubic,Ia-3,206.0,m-3,0.1,1.16.2,mp-1182469,-10.25598441975,-3.185170473000001,,,"['icsd-96953', 'icsd-631460', 'icsd-40472', 'icsd-631468', 'icsd-194513']"
5.0,2.0,Eu2O3,72.34458065048803,8.077829720008786,Trigonal,P-3m1,164.0,-3m,0.1,1.16.2,mp-1017564,-10.196440702,-3.1256267552500008,,,['icsd-659185']
15.0,2.0,Eu2O3,223.97426963425625,7.827513463234499,Monoclinic,C2/m,12.0,2/m,0.1,1.16.2,mp-647924,-10.215788153333333,-3.1449742065833335,,,"['icsd-631453', 'icsd-631461', 'icsd-8056', 'icsd-659184']"
20.0,2.0,Eu2S3,461.5678901418268,5.757938428004897,Orthorhombic,Pnma,62.0,mmm,0.1,1.16.2,mp-1106110,-8.5101218535,-1.9254512133749997,,,['icsd-631610']
20.0,2.0,Eu2Se3,660.3493202800106,5.439743989735713,Orthorhombic,Fddd,70.0,mmm,0.1,1.16.2,mp-1189540,-7.957922266999999,-1.7575746604062494,,,['icsd-631660']
5.0,3.0,EuErO3,79.70974853734867,7.65006990830001,Cubic,Pm-3m,221.0,m-3m,0.1,1.16.2,mp-1183905,-9.080307512000001,-3.1473501632500005,,,
20.0,3.0,EuTmO3,287.91151356357466,8.510488417104973,Orthorhombic,Pnma,62.0,mmm,0.1,1.16.2,mp-1178346,-9.45700875,-3.5424280785833333,,,
5.0,3.0,EuTmO3,77.77437689449803,7.876204539246209,Cubic,Pm-3m,221.0,m-3m,0.1,1.16.2,mp-1184353,-9.106493704,-3.191913032583334,,,
5.0,3.0,YbEuO3,74.69947171208389,8.29168815831867,Cubic,Pm-3m,221.0,m-3m,0.1,1.16.2,mp-1187715,-7.801571602,-2.47423635925,,,
5.0,3.0,EuLuO3,77.17786059059614,8.066880567105853,Cubic,Pm-3m,221.0,m-3m,0.1,1.16.2,mp-1184309,-9.165762474000001,-3.2421587832500003,,,
5.0,3.0,EuHfO3,68.80440725408809,9.133639660900897,Cubic,Pm-3m,221.0,m-3m,0.1,1.16.2,mp-753781,-10.737502918,-3.72665152525,,,
20.0,3.0,EuHfS3,450.9171333105742,6.2846787570421165,Orthorhombic,Pnma,62.0,mmm,0.1,1.16.2,mp-1190059,-8.6395778415,-2.1148697553749995,,,['icsd-631329']
5.0,3.0,EuWO3,68.92906911488409,9.246005424573594,Cubic,Pm-3m,221.0,m-3m,0.1,1.16.2,mp-1184400,-10.021163390000002,-2.410123757250001,,,
5.0,3.0,EuReO3,64.0656384268225,10.009250803769334,Cubic,Pm-3m,221.0,m-3m,0.1,1.16.2,mp-976320,-9.868711476,-2.360392452250001,,,
5.0,3.0,EuOsO3,63.46142186546037,10.209815231625683,Cubic,Pm-3m,221.0,m-3m,0.1,1.16.2,mp-977370,-9.311723178,-2.04683610525,,,
5.0,3.0,EuIrO3,64.50455212341306,10.095859304037548,Cubic,Pm-3m,221.0,m-3m,0.1,1.16.2,mp-1184445,-8.687974162,-1.900873739250001,,,
5.0,3.0,EuPtO3,67.25453921150796,9.75383455009428,Cubic,Pm-3m,221.0,m-3m,0.1,1.16.2,mp-976258,-7.9838324400000005,-1.7501921892500008,,,
5.0,3.0,EuAuO3,69.40281719206341,9.496959262589133,Cubic,Pm-3m,221.0,m-3m,0.1,1.16.2,mp-1184383,-7.157114180000001,-1.482924193250001,,,
5.0,3.0,EuPbO3,78.6682649547427,8.594428006411011,Cubic,Pm-3m,221.0,m-3m,0.1,1.16.2,mp-1184348,-7.768094994,-2.0061519932500005,,,
20.0,3.0,EuUO3,313.7224264316142,9.273182759053235,Orthorhombic,Pnma,62.0,mmm,0.1,1.16.2,mp-1213318,-10.778753366,-3.50105777725,,,
20.0,3.0,EuNpO3,311.6587018232607,9.312659001434982,Orthorhombic,Pnma,62.0,mmm,0.1,1.16.2,mp-1213363,-11.035051473500001,-3.4260819505000013,,,
5.0,2.0,Gd2O3,83.0920639406954,7.244282957055915,Tetragonal,P-4m2,115.0,-42m,0.1,1.16.2,mp-1224674,-12.287612186,-3.6891500632499996,,,
15.0,2.0,Gd2O3,217.2492572800085,8.312236785643153,Monoclinic,C2/m,12.0,2/m,0.1,1.16.2,mp-643084,-12.454365913999998,-3.8559037912499985,,,"['icsd-160226', 'icsd-636103', 'icsd-184528', 'icsd-636107', 'icsd-162248']"
10.0,2.0,Gd2O3,153.79457357664,7.827875960424778,Cubic,Pn-3m,224.0,m-3m,0.1,1.16.2,mp-684585,-12.05699012,-3.4585279972500005,,,
40.0,2.0,Gd2O3,630.9088590562675,7.6327021126009695,Cubic,Ia-3,206.0,m-3,0.1,1.16.2,mp-504886,-12.494637291,-3.896175168249999,,,"['icsd-40473', 'icsd-160886', 'icsd-184594', 'icsd-184591', 'icsd-193365', 'icsd-41270', 'icsd-636112', 'icsd-181377', 'icsd-184593', 'icsd-152449', 'icsd-636104', 'icsd-165505', 'icsd-96207', 'icsd-150677', 'icsd-168980', 'icsd-184536', 'icsd-183132', 'icsd-94892', 'icsd-184590', 'icsd-636111', 'icsd-184595', 'icsd-184592']"
5.0,2.0,Gd2O3,70.9617989589644,8.482626307434368,Trigonal,P-3m1,164.0,-3m,0.1,1.16.2,mp-20470,-12.442722913999999,-3.8442607912499995,,,"['icsd-162247', 'icsd-160211']"
20.0,2.0,Gd2S3,445.18002117190946,6.127634300946648,Orthorhombic,Pnma,62.0,mmm,0.1,1.16.2,mp-669509,-10.488191045499999,-2.3758722293749996,,,"['icsd-53629', 'icsd-636316', 'icsd-636320', 'icsd-22223', 'icsd-246849']"
20.0,2.0,Gd2S3,445.88990291110485,6.1178787633883625,Orthorhombic,Pnma,62.0,mmm,0.1,1.16.2,mp-608146,-10.4937873305,-2.381468514375,,,['icsd-33785']
40.0,2.0,Gd2S3,892.5105979941654,6.112869413449767,Tetragonal,I-42d,122.0,-42m,0.1,1.16.2,mp-684712,-10.471301019250001,-2.358982203125001,,,
10.0,2.0,Gd2Cl3,273.76022379706694,5.105583282604672,Monoclinic,C2/m,12.0,2/m,0.1,1.16.2,mp-1078829,-8.94548123,-2.205910338,,,"['icsd-9320', 'icsd-9580', 'icsd-23140']"
10.0,2.0,Gd2Cl3,270.80917304881933,5.161219637890373,Monoclinic,Cm,8.0,m,0.1,1.16.2,mp-656152,-8.941987886,-2.202416993999999,,,
20.0,2.0,Gd2Se3,505.5070882187631,7.244907554259087,Orthorhombic,Pnma,62.0,mmm,0.1,1.16.2,mp-1188175,-9.904602747499998,-2.1766069649062487,,,"['icsd-636396', 'icsd-99997', 'icsd-636390']"
10.0,2.0,Gd2Br3,317.02974125205515,5.805705632184458,Monoclinic,C2/m,12.0,2/m,0.1,1.16.2,mp-618813,-8.459324943999999,-1.8970590499999986,,,['icsd-9581']
20.0,3.0,TbGdO3,296.31536640116883,8.163254091638267,Orthorhombic,Pnma,62.0,mmm,0.1,1.16.2,mp-756224,-10.555826073,-3.8457151782500008,,,
5.0,3.0,GdErO3,76.28684769568456,8.10838010579864,Cubic,Pm-3m,221.0,m-3m,0.1,1.16.2,mp-1184486,-9.93883887,-3.2420574332499994,,,
40.0,3.0,GdErO3,599.9677434621269,8.247946859547477,Monoclinic,C2,5.0,2,0.1,1.16.2,mp-766236,-10.66889429325,-3.9721128565,,,
20.0,3.0,GdTmO3,282.19548324982117,8.807292061290385,Orthorhombic,Pnma,62.0,mmm,0.1,1.16.2,mp-756030,-10.605396297999999,-3.9269915385833327,,,
20.0,3.0,YbGdS3,442.55604245999774,6.400952068192936,Orthorhombic,Pnma,62.0,mmm,0.1,1.16.2,mp-1215815,-7.678377030999999,-2.0733610068749995,,,
20.0,3.0,YbGdS3,451.98635890553487,6.267401569673598,Orthorhombic,Pnma,62.0,mmm,0.1,1.16.2,mp-1215831,-7.673731156,-2.068715131875,,,
20.0,3.0,GdLuO3,278.05624247754866,9.08251061281044,Orthorhombic,Pnma,62.0,mmm,0.1,1.16.2,mp-756424,-10.642339261,-3.9549114822499987,,,
5.0,3.0,GdThO3,96.63496616304798,7.514163318402116,Cubic,Pm-3m,221.0,m-3m,0.1,1.16.2,mp-1184491,-10.404723892,-3.1387145672499996,,,
40.0,2.0,Tb2N3,671.4702386679857,7.119654607644628,Cubic,Ia-3,206.0,m-3,0.1,1.16.2,mp-1204171,-7.53885367675,-0.6832102817500001,,,['icsd-644736']
15.0,2.0,Tb2O3,209.0958421218016,8.71619040471529,Monoclinic,C2/m,12.0,2/m,0.1,1.16.2,mp-2457,-8.765884984,-3.9441253172499993,,,"['icsd-28172', 'icsd-160227']"
40.0,2.0,Tb2O3,606.4592869538722,8.013812686078552,Cubic,Ia-3,206.0,m-3,0.1,1.16.2,mp-1056,-8.80610312575,-3.984343459,,,"['icsd-647494', 'icsd-647509', 'icsd-184537', 'icsd-40474', 'icsd-647501']"
10.0,2.0,Tb2O3,156.0322026051266,7.786936039864331,Cubic,Pn-3m,224.0,m-3m,0.1,1.16.2,mp-32927,-8.325751382,-3.5039917152499997,,,
5.0,2.0,Tb2O3,68.48072821227865,8.871202260575703,Trigonal,P-3m1,164.0,-3m,0.1,1.16.2,mp-13063,-8.750158162,-3.9283984952499993,,,['icsd-160212']
5.0,2.0,Tb2O3,81.05964694615568,7.494560040783008,Tetragonal,P-4m2,115.0,-42m,0.1,1.16.2,mp-1217673,-8.561542165999999,-3.739782499249999,,,
20.0,2.0,Tb2S3,434.7272674356821,6.32616457912399,Orthorhombic,Pnma,62.0,mmm,0.1,1.16.2,mp-9323,-6.7115309844999995,-2.3759146243749996,,,['icsd-80767']
20.0,2.0,Tb2S3,434.97975133045594,6.322492558375823,Orthorhombic,Pnma,62.0,mmm,0.1,1.16.2,mp-1205297,-6.706498444,-2.370882083875,,,['icsd-651127']
40.0,2.0,Tb2S3,870.296188580928,6.32004661611876,Tetragonal,I-42d,122.0,-42m,0.1,1.16.2,mp-673644,-6.6880819465000005,-2.3524655863749997,,,
10.0,2.0,Tb2Cl3,264.52173258241186,5.325965261180985,Monoclinic,C2/m,12.0,2/m,0.1,1.16.2,mp-1205852,-5.167708141,-2.204839705,,,
40.0,2.0,Tb2Se3,990.005497837096,7.443611178360862,Tetragonal,I-42d,122.0,-42m,0.1,1.16.2,mp-685003,-6.07928639525,-2.1279930686562496,,,
20.0,2.0,Tb2Se3,495.12914772713816,7.4417109396274475,Orthorhombic,Pnma,62.0,mmm,0.1,1.16.2,mp-15257,-6.1062739425000006,-2.1549806159062497,,,"['icsd-651981', 'icsd-651977', 'icsd-85417']"
20.0,3.0,TbHoO3,285.7770895270979,8.642790494132278,Orthorhombic,Pnma,62.0,mmm,0.1,1.16.2,mp-755740,-8.725198068000001,-3.9138298472500006,,,
5.0,3.0,TbErO3,76.75262073438618,8.095420538997141,Cubic,Pm-3m,221.0,m-3m,0.1,1.16.2,mp-1187342,-8.003597216,-3.1951670072500002,,,
20.0,3.0,TbErO3,283.4667004969909,8.76779870405418,Orthorhombic,Pnma,62.0,mmm,0.1,1.16.2,mp-756048,-8.7410922665,-3.93266205775,,,
20.0,3.0,TbTmO3,279.38814552182055,8.935618836641323,Orthorhombic,Pnma,62.0,mmm,0.1,1.16.2,mp-756762,-8.7492180945,-3.959164563083333,,,
20.0,3.0,TbLuO3,273.160901583886,9.286016758084521,Orthorhombic,Pnma,62.0,mmm,0.1,1.16.2,mp-754145,-8.787407116999999,-3.9883305662499993,,,
5.0,3.0,TbOsO3,62.269216857666834,10.59093109716342,Cubic,Pm-3m,221.0,m-3m,0.1,1.16.2,mp-1187359,-8.02200867,-1.88164873725,,,
40.0,2.0,Dy2N3,659.5620078504558,7.392193085998623,Cubic,Ia-3,206.0,m-3,0.1,1.16.2,mp-1205065,-7.54915107825,-0.70453938725,,,['icsd-629957']
40.0,2.0,Dy2O3,594.5583725490907,8.333958265069626,Cubic,Ia-3,206.0,m-3,0.1,1.16.2,mp-2345,-8.821172594,-4.0104446312499995,,,"['icsd-180837', 'icsd-185242', 'icsd-82421', 'icsd-185606', 'icsd-630042', 'icsd-61269', 'icsd-96208', 'icsd-248579', 'icsd-184538', 'icsd-66736', 'icsd-41269', 'icsd-630047', 'icsd-248578']"