nsites,nelements,formula_pretty,volume,density,crystal_system,symbol,number,point_group,symprec,version,material_id,energy_per_atom,formation_energy_per_atom,e_total,e_electronic,icsd
5.0,3.0,YbSiO3,43.77570241912949,9.44998283077612,Cubic,Pm-3m,221.0,m-3m,0.1,1.16.2,mp-1187516,-7.79304712,-3.4320486312500003,,,
5.0,3.0,LuSiO3,49.85358501080958,8.362076567951654,Cubic,Pm-3m,221.0,m-3m,0.1,1.16.2,mp-973655,-7.67381671,-2.71654977325,,,
5.0,3.0,TlSiO3,50.85047420789469,9.158742718662724,Cubic,Pm-3m,221.0,m-3m,0.1,1.16.2,mp-1187529,-6.38847278,-1.8628673179166668,,,
5.0,3.0,SiPbO3,52.65754671539653,8.93326180430379,Cubic,Pm-3m,221.0,m-3m,0.1,1.16.2,mp-978489,-6.968344168,-2.1727379212500004,,,
60.0,3.0,SiPbO3,894.2667610519505,6.312259445639853,Monoclinic,P2/c,13.0,2/m,0.1,1.16.2,mp-21723,-7.3922961071666675,-2.5966898604166677,,,"['icsd-26812', 'icsd-250220']"
5.0,3.0,SiBiO3,54.81423140456447,8.63571489384692,Cubic,Pm-3m,221.0,m-3m,0.1,1.16.2,mp-972827,-6.652173252,-1.83099859325,,,
5.0,3.0,AcSiO3,62.5790478372491,8.042345508493089,Cubic,Pm-3m,221.0,m-3m,0.1,1.16.2,mp-1183150,-7.746321593999999,-2.86900975975,,,
5.0,3.0,ThSiO3,58.593404576833066,8.7321810952055,Cubic,Pm-3m,221.0,m-3m,0.1,1.16.2,mp-1187425,-8.034501764,-2.4986532812499993,,,
5.0,3.0,PaSiO3,55.782551954834126,9.14235801045292,Cubic,Pm-3m,221.0,m-3m,0.1,1.16.2,mp-1186401,-8.354445896,-2.39843613125,,,
5.0,3.0,USiO3,54.68087788655943,9.538915254776812,Cubic,Pm-3m,221.0,m-3m,0.1,1.16.2,mp-1187767,-8.765367044,-2.45400820925,,,
5.0,3.0,NpSiO3,54.13223823303124,9.604031385652947,Cubic,Pm-3m,221.0,m-3m,0.1,1.16.2,mp-1186349,-9.168627902,-2.525995133000001,,,
20.0,2.0,P2O3,385.5032877573806,1.8943461776390607,Monoclinic,P2_1/m,11.0,2/m,0.1,1.16.2,mp-368,-7.094603257999999,-1.9612690285833323,,,"['icsd-62026', 'icsd-24407']"
10.0,2.0,P2S3,1257.3259177445318,0.4177148271369436,Orthorhombic,Pmn2_1,31.0,mm2,0.1,1.16.2,mp-1147708,-5.095245459,-0.44805453620833335,,,
20.0,2.0,P2S3,516.2618929958488,2.0346405013072664,Monoclinic,P2_1/m,11.0,2/m,0.1,1.16.2,mp-1189177,-5.100835493,-0.45364457020833343,,,['icsd-423037']
20.0,2.0,P2S3,489.054292585416,2.147833835008109,Monoclinic,P2_1/c,14.0,2/m,0.1,1.16.2,mp-1147714,-5.0963785025,-0.4491875797083331,,,
40.0,2.0,P2S3,1029.752997139049,2.0401151726467353,Monoclinic,P2_1/c,14.0,2/m,0.1,1.16.2,mp-29014,-5.11193370475,-0.4647427819583335,,,['icsd-78765']
40.0,3.0,KPO3,641.5459608291362,2.4448478472383606,Monoclinic,P2_1/c,14.0,2/m,0.1,1.16.2,mp-5039,-6.9638133049999995,-2.6910597875166657,,,"['icsd-26146', 'icsd-15872']"
60.0,3.0,KPO3,1005.7576849014606,2.3392547003872783,Monoclinic,P2_1/c,14.0,2/m,0.1,1.16.2,mp-557880,-6.960182587666667,-2.687429070183334,,,['icsd-76']
240.0,3.0,KPO3,4158.237430130767,2.26319293343707,Cubic,Pa-3,205.0,m-3,0.1,1.16.2,mp-1196581,-6.953922860375001,-2.681169342891668,,,['icsd-65680']
10.0,3.0,KPO3,201.794081320203,1.943171785535104,Monoclinic,C2/m,12.0,2/m,0.1,1.16.2,mp-1223439,-6.717871758999999,-2.4451182415166657,,,
10.0,3.0,KPO3,177.45227608604674,2.209724067552987,Triclinic,P-1,2.0,-1,0.1,1.16.2,mp-675976,-5.470951085,-1.1981975675166665,,,
40.0,3.0,KPO3,641.9825133506407,2.443185333898494,Monoclinic,P2_1/c,14.0,2/m,0.1,1.16.2,mp-557985,-6.962771769,-2.6900182515166664,,,['icsd-26147']
20.0,3.0,KPO3,321.2956614628418,2.4408705895628415,Orthorhombic,Pnma,62.0,mmm,0.1,1.16.2,mp-13981,-6.951222896500001,-2.678469379016667,,,['icsd-26148']
10.0,3.0,KPS3,264.3180621637443,2.089096368819211,Orthorhombic,Immm,71.0,mmm,0.1,1.16.2,mp-8267,-4.7491044559999995,-0.9624942451416665,13.059857619944006,3.7420620199999903,['icsd-33278']
120.0,3.0,KPSe3,3731.404010154259,3.2783749332146126,Trigonal,P3_1,144.0,3,0.1,1.16.2,mp-569702,-4.206666757833333,-0.8043795805062501,,,['icsd-173418']
30.0,3.0,KPSe3,877.6161107698349,3.4847073858567867,Trigonal,P3_121,152.0,32,0.1,1.16.2,mp-571452,-4.204703159999999,-0.8024159826729166,10.682981863334915,5.507202693333336,['icsd-173417']
20.0,3.0,CaPS3,443.77881771096435,2.5032270219281423,Monoclinic,P2_1/c,14.0,2/m,0.1,1.16.2,mp-9789,-5.3232977715,-1.3576473740416675,11.388670276666666,5.2933173133333336,['icsd-405192']
20.0,3.0,CaPSe3,507.1679981909675,4.032846886805643,Monoclinic,P2_1/c,14.0,2/m,0.1,1.16.2,mp-11007,-4.750454132,-1.169126768072917,12.934790536666668,6.9589568533333335,['icsd-412765']
5.0,3.0,TiPN3,65.01044611865268,3.0871066875569184,Orthorhombic,Amm2,38.0,mm2,0.1,1.16.2,mp-989613,-8.671423264,-1.0077674043333318,,,
20.0,3.0,TiPN3,196.48484372342958,4.085692904770749,Monoclinic,C2/c,15.0,2/m,0.1,1.16.2,mp-989624,-8.6854144385,-1.0217585788333323,,,
10.0,3.0,VPS3,202.87012210072882,2.915747722244791,Monoclinic,C2/m,12.0,2/m,0.1,1.16.2,mp-1078971,-6.160961794,-0.7796501585416671,,,['icsd-648076']
10.0,3.0,CrPSe3,233.48128344501615,4.549599723463025,Monoclinic,C2/m,12.0,2/m,0.1,1.16.2,mp-1101069,-5.655635716,-0.5448188340729161,,,['icsd-626521']
40.0,3.0,MnPO3,587.5026012117828,3.027905545589537,Monoclinic,P2_1/c,14.0,2/m,0.1,1.16.2,mp-1210723,-8.04643232075,-2.1633555342528736,,,
20.0,3.0,MnPS3,445.11476705020965,2.7174606614044383,Triclinic,P-1,2.0,-1,0.1,1.16.2,mp-1232516,-6.098327931,-0.7013944511278737,,,
10.0,3.0,MnPS3,216.04569066551986,2.799365878447004,Monoclinic,C2/m,12.0,2/m,0.1,1.16.2,mp-8613,-6.104991248,-0.708057768127874,10.223398583334285,5.7241756566666675,"['icsd-643234', 'icsd-643231', 'icsd-61391']"
10.0,3.0,MnPSe3,244.92095212715077,4.376991035243391,Trigonal,R-3,148.0,-3,0.1,1.16.2,mp-8695,-5.553324787,-0.5407143406591238,,,"['icsd-54140', 'icsd-643237', 'icsd-643239']"
20.0,3.0,FePS3,413.33303440855656,2.940984399771395,Monoclinic,C2/m,12.0,2/m,0.1,1.16.2,mp-5864,-5.810363875,-0.5518292115416671,,,"['icsd-633080', 'icsd-61392', 'icsd-16252', 'icsd-633087', 'icsd-27307', 'icsd-657319']"
20.0,3.0,FePS3,418.6342028677243,2.9037426893899365,Triclinic,P-1,2.0,-1,0.1,1.16.2,mp-1232490,-5.8158386865,-0.5573040230416673,,,
10.0,3.0,FePSe3,208.9631556740785,5.144585784772708,Trigonal,R-3,148.0,-3,0.1,1.16.2,mp-2928,-5.289859963,-0.41564833307291665,,,"['icsd-86272', 'icsd-633091', 'icsd-56890', 'icsd-54141', 'icsd-633095', 'icsd-633094']"
10.0,3.0,CoPS3,189.78855980601156,3.2565668898597626,Monoclinic,C2/m,12.0,2/m,0.1,1.16.2,mp-676437,-5.513311689,-0.5271177085416674,,,['icsd-624616']
10.0,3.0,NiPS3,194.28794119527507,3.1770513301547467,Monoclinic,C2/m,12.0,2/m,0.1,1.16.2,mp-676040,-5.240269280000001,-0.5197115225416674,,,"['icsd-646133', 'icsd-657314', 'icsd-602341']"
10.0,3.0,NiPSe3,217.80825323611083,4.979098005074669,Monoclinic,C2/m,12.0,2/m,0.1,1.16.2,mp-1079754,-4.740707723,-0.4044729990729167,,,['icsd-646145']
30.0,3.0,CuPO3,516.1115298012884,2.7512267786499294,Trigonal,R-3,148.0,-3,0.1,1.16.2,mp-772255,-6.853014276666667,-1.9824992145833344,,,
40.0,3.0,CuPO3,527.1976932446773,3.5911635673015696,Monoclinic,P2_1/c,14.0,2/m,0.1,1.16.2,mp-772192,-6.792651254750001,-1.9221361926666674,,,
40.0,3.0,CuPO3,539.814837280916,3.5072269563433247,Monoclinic,P2_1/c,14.0,2/m,0.1,1.16.2,mp-766856,-6.77496752375,-1.9044524616666663,,,
20.0,3.0,CuPS3,420.37823665904114,3.013374958658294,Tetragonal,P4_2/mnm,136.0,4/mmm,0.1,1.16.2,mp-1105187,-4.908199633000001,-0.5238278775416667,9.090396906666665,6.830763006666665,['icsd-430200']
10.0,3.0,ZnPS3,226.03806418074143,2.8294605894668834,Monoclinic,C2/m,12.0,2/m,0.1,1.16.2,mp-3342,-4.523797902,-0.7073187585416661,,,"['icsd-648089', 'icsd-648084', 'icsd-201933', 'icsd-79557']"
20.0,3.0,RbPO3,351.4652348774249,3.1076604091285054,Orthorhombic,Pnma,62.0,mmm,0.1,1.16.2,mp-9138,-6.9216023280000005,-2.674821785416667,,,['icsd-74738']
10.0,3.0,RbPO3,197.61800656873498,2.7634996794528597,Orthorhombic,Cmcm,63.0,mmm,0.1,1.16.2,mp-548658,-6.877258202999999,-2.630477660416666,,,['icsd-70035']
60.0,3.0,RbPO3,1293.4467402214239,2.53331172049646,Monoclinic,P2_1/c,14.0,2/m,0.1,1.16.2,mp-1179733,-5.750318730999999,-1.5035381884166663,,,
40.0,3.0,RbPO3,710.7564179441405,3.073442794292052,Monoclinic,P2_1/c,14.0,2/m,0.1,1.16.2,mp-616587,-6.9265677842499995,-2.6797872416666664,,,['icsd-74737']
20.0,3.0,RbPO3,330.3261195543584,3.3065341520287697,Monoclinic,P2_1/c,14.0,2/m,0.1,1.16.2,mp-4135,-6.9249406454999995,-2.6781601029166664,,,"['icsd-74736', 'icsd-16629', 'icsd-16612']"
10.0,3.0,RbPS3,282.46844577595846,2.500040790174273,Orthorhombic,Immm,71.0,mmm,0.1,1.16.2,mp-556953,-4.741105192,-0.9804679560416666,7.6079842032876,3.501458713333379,['icsd-416176']
30.0,3.0,RbPSe3,936.9033196344338,3.7572986100768064,Trigonal,P3_121,152.0,32,0.1,1.16.2,mp-571464,-4.181909743666667,-0.8055955412395832,,,['icsd-173419']
20.0,3.0,SrPS3,484.9034841602534,2.942153579162792,Monoclinic,P2_1/c,14.0,2/m,0.1,1.16.2,mp-9788,-5.331276638,-1.4288475258749997,9.349123220000001,4.796761756666666,['icsd-405191']
20.0,3.0,SrPSe3,548.3337108817398,4.305976869473027,Monoclinic,P2_1/c,14.0,2/m,0.1,1.16.2,mp-7198,-4.7588590135,-1.24075293490625,10.689111173333332,6.235838693333334,['icsd-412766']
40.0,3.0,AgPO3,523.544804128728,4.740841826933122,Monoclinic,P2_1/c,14.0,2/m,0.1,1.16.2,mp-18702,-6.5785070015,-1.9613220727500007,,,"['icsd-15436', 'icsd-261322']"
20.0,3.0,AgPO3,264.7268375552521,4.6879325281271225,Monoclinic,P2_1/c,14.0,2/m,0.1,1.16.2,mp-775762,-6.533062172999999,-1.9158772442499994,,,
10.0,3.0,AgPS3,222.4638175390565,3.508777848132174,Monoclinic,C2/m,12.0,2/m,0.1,1.16.2,mp-5470,-4.593607009,-0.4625653868750007,9.179871063353689,5.337529149999999,['icsd-30531']
10.0,3.0,CdPS3,230.0018155238127,3.459377513709595,Monoclinic,C2/m,12.0,2/m,0.1,1.16.2,mp-5328,-4.456263506,-0.7071551325416664,10.36884562333347,5.2104669233333345,"['icsd-79556', 'icsd-620232', 'icsd-657320', 'icsd-61393']"
10.0,3.0,CdPS3,228.04409683199663,3.489075664701975,Trigonal,R-3,148.0,-3,0.1,1.16.2,mp-9330,-4.456015427,-0.7069070535416664,10.226603789998562,5.170112733333332,
10.0,3.0,CdPSe3,261.691952841095,4.825860987294309,Trigonal,R-3,148.0,-3,0.1,1.16.2,mp-1079559,-3.954065545,-0.5892802050729167,11.776194843333334,6.494007093333335,"['icsd-620237', 'icsd-620234']"
5.0,3.0,InPF3,123.86473498463428,2.7185759415791555,Trigonal,R3,146.0,3,0.1,1.16.2,mp-675295,-4.407952926,-1.6280682981666665,,,
10.0,3.0,SnPO3,195.39734301346112,3.359908743902649,Monoclinic,Cc,9.0,m,0.1,1.16.2,mp-726037,-6.779568617000001,-1.9269805179166681,,,['icsd-25034']
20.0,3.0,SnPS3,484.4699850693268,3.3710347598918244,Monoclinic,P2_1/c,14.0,2/m,0.1,1.16.2,mp-4252,-5.009987266,-0.6435424735416675,,,"['icsd-72835', 'icsd-657344', 'icsd-39232']"
20.0,3.0,SnPS3,491.6797092754763,3.3216037371148683,Monoclinic,Pc,7.0,m,0.1,1.16.2,mp-13923,-5.017023448,-0.6505786555416669,28.483907150000004,7.062936913333334,"['icsd-656172', 'icsd-25357']"
10.0,3.0,SnPS3,270.7432356763062,3.0160774944448567,Monoclinic,C2/m,12.0,2/m,0.1,1.16.2,mp-1080140,-4.971368081,-0.6049232885416671,,,['icsd-648056']
10.0,3.0,SnPS3,269.0871249796568,3.034640100146826,Trigonal,R-3,148.0,-3,0.1,1.16.2,mp-1079752,-4.971396911,-0.6049521185416673,,,['icsd-648055']
20.0,3.0,SnPSe3,604.3096101075289,4.248843425929607,Monoclinic,P2_1/c,14.0,2/m,0.1,1.16.2,mp-673705,-4.329535504000001,-0.3474137450729174,,,
20.0,3.0,SnPSe3,550.5226376276487,4.663962457921832,Monoclinic,Pc,7.0,m,0.1,1.16.2,mp-570370,-4.5076829415,-0.5255611825729168,36.743719353333326,10.383366623333332,"['icsd-656173', 'icsd-403097']"
20.0,3.0,SnPSe3,544.1465559382784,4.718612818754472,Monoclinic,P2_1/c,14.0,2/m,0.1,1.16.2,mp-5706,-4.504467141,-0.5223453820729169,,,"['icsd-648111', 'icsd-648112', 'icsd-64659', 'icsd-655564', 'icsd-648114']"
20.0,3.0,CsPO3,371.02901781186864,3.793026488181845,Monoclinic,P2_1/c,14.0,2/m,0.1,1.16.2,mp-1213226,-6.9074490815,-2.677694879002874,,,
20.0,3.0,CsPO3,396.85663910950774,3.5461744966705164,Orthorhombic,Pnma,62.0,mmm,0.1,1.16.2,mp-1213232,-6.902588303500001,-2.6728341010028744,,,
10.0,3.0,CsPS3,315.3575746673914,2.7388807315107138,Orthorhombic,Immm,71.0,mmm,0.1,1.16.2,mp-504838,-4.748621428,-1.0050105321278735,6.573466069999999,3.276318526666666,['icsd-33277']
20.0,3.0,BaPS3,533.9879165208707,3.290003628641807,Monoclinic,P2_1/c,14.0,2/m,0.1,1.16.2,mp-11006,-5.4233915645,-1.4750661550416673,9.253956813333332,4.6429088033333334,['icsd-412764']
20.0,3.0,BaPSe3,594.5640041838495,4.526466315493323,Monoclinic,P2_1/c,14.0,2/m,0.1,1.16.2,mp-11008,-4.858490397500001,-1.294488021572917,10.487586923333332,5.953356756666666,['icsd-412768']
20.0,3.0,EuPS3,468.05891340219597,3.961132607857609,Monoclinic,P2_1/c,14.0,2/m,0.1,1.16.2,mp-20217,-7.0126926780000005,-1.3967618965416677,,,['icsd-412763']
20.0,3.0,EuPSe3,531.1167416469148,5.2502490694750295,Monoclinic,P2_1/c,14.0,2/m,0.1,1.16.2,mp-20742,-6.4449180005,-1.2133102525729171,,,"['icsd-412767', 'icsd-87891']"
40.0,3.0,TlPO3,638.7158327617263,5.89335611416675,Tetragonal,P-42_1c,114.0,-42m,0.1,1.16.2,mp-27144,-6.7838944375,-2.260692080083333,,,['icsd-2139']
120.0,3.0,TlPO3,2032.6740776389734,5.55550921758248,Orthorhombic,Pbcn,60.0,mmm,0.1,1.16.2,mp-556932,-6.771446867750001,-2.2482445103333344,,,['icsd-157104']
10.0,3.0,TlPS3,255.24432221846365,4.313946314477194,Orthorhombic,Immm,71.0,mmm,0.1,1.16.2,mp-8249,-4.665118756,-0.6280597052083337,27.08598139331103,5.24397608333333,"['icsd-658902', 'icsd-38255']"
40.0,3.0,PPbO3,671.9264895888821,5.657758460540187,Orthorhombic,Cmc2_1,36.0,mm2,0.1,1.16.2,mp-1195541,-6.762833337000001,-1.9696301949166675,,,['icsd-429745']
20.0,3.0,PPbS3,476.69425217727553,4.659023174000384,Monoclinic,P2_1/c,14.0,2/m,0.1,1.16.2,mp-20199,-5.0336123155,-0.7265524800416671,65.52597098,7.578740369999999,['icsd-647906']
20.0,3.0,PPbSe3,535.998094170855,5.8869263836214,Monoclinic,P2_1/c,14.0,2/m,0.1,1.16.2,mp-20316,-4.5211461669999995,-0.5984093650729164,61.07080166,10.183401906666667,"['icsd-62230', 'icsd-647914', 'icsd-647911']"
10.0,2.0,K2S3,272.4065994738514,2.1261163660954403,Orthorhombic,Cmc2_1,36.0,mm2,0.1,1.16.2,mp-7667,-4.018105083,-1.0920755840750005,8.007551410000366,3.888772243333674,['icsd-1263']
10.0,2.0,K2Se3,310.2867416586008,3.3723452086596684,Orthorhombic,Cmc2_1,36.0,mm2,0.1,1.16.2,mp-7670,-3.623985547,-1.08227908160625,10.863662936312645,6.6812261533376045,['icsd-1264']
20.0,3.0,KCaH3,356.48780527248573,1.5315700399330658,Orthorhombic,Pnma,62.0,mmm,0.1,1.16.2,mp-1105914,-3.1376771445000005,-0.4788417521000003,,,['icsd-168716']
5.0,3.0,KCaO3,95.36093697143247,2.2145150019717708,Cubic,Pm-3m,221.0,m-3m,0.1,1.16.2,mp-982885,-5.06711209,-1.4758990978500002,,,
5.0,3.0,KCaF3,90.01935657512333,2.5118832221378504,Cubic,Pm-3m,221.0,m-3m,0.1,1.16.2,mp-4950,-5.471143295999999,-3.7010561501,,,"['icsd-154073', 'icsd-154074']"
20.0,3.0,KCaF3,346.4864821349556,2.610411927823775,Monoclinic,P2_1/m,11.0,2/m,0.1,1.16.2,mp-643749,-5.4929808435,-3.7228936976,,,['icsd-85320']
20.0,3.0,KCaF3,332.23397730054904,2.7223959847326937,Orthorhombic,Pnma,62.0,mmm,0.1,1.16.2,mp-5926,-5.495007580499999,-3.7249204346,9.25802811,2.0507801166666666,"['icsd-181644', 'icsd-153629', 'icsd-181643', 'icsd-153628', 'icsd-181648', 'icsd-181647', 'icsd-181646', 'icsd-181649', 'icsd-181645']"
5.0,3.0,KCaCl3,156.89807138304974,1.9636226957257223,Cubic,Pm-3m,221.0,m-3m,0.1,1.16.2,mp-1211589,-4.297565153999999,-2.5652433925999993,,,
10.0,3.0,KCaCl3,310.68155861108005,1.9833080229201823,Trigonal,R-3,148.0,-3,0.1,1.16.2,mp-998421,-4.339138676999999,-2.6068169155999996,,,
20.0,3.0,KCaCl3,572.3463649065128,2.1531620205794386,Orthorhombic,Pnma,62.0,mmm,0.1,1.16.2,mp-1211643,-4.3432983085,-2.6109765470999995,8.193458243333334,2.6011519900000004,
5.0,3.0,KCaCl3,158.08478525203168,1.9488821355715602,Monoclinic,Cm,8.0,m,0.1,1.16.2,mp-998601,-4.297632129999999,-2.5653103685999996,,,
10.0,3.0,KCaBr3,324.2537852699501,3.2661236604582147,Orthorhombic,Cmcm,63.0,mmm,0.1,1.16.2,mp-998599,-3.87898141,-2.3239646466,7.682010814541002,2.9688536998789967,
5.0,3.0,KCaBr3,187.1315837363699,2.8297012693359935,Monoclinic,Cm,8.0,m,0.1,1.16.2,mp-998749,-3.824431044,-2.2694142806,,,
20.0,3.0,KCaBr3,671.3702189186729,3.154900024517205,Orthorhombic,Pnma,62.0,mmm,0.1,1.16.2,mp-1211648,-3.878593241,-2.3235764776,,,
10.0,3.0,KCaI3,408.3048074953539,3.740660485811372,Orthorhombic,Cmcm,63.0,mmm,0.1,1.16.2,mp-1205722,-3.3349183689999995,-1.8276987935999998,,,
5.0,3.0,KScO3,74.65340065311048,2.937283325962221,Cubic,Pm-3m,221.0,m-3m,0.1,1.16.2,mp-973960,-6.798047294,-2.3414604568499997,,,
5.0,3.0,KTiO3,78.59586598624729,2.851449774143137,Tetragonal,P4mm,99.0,4mm,0.1,1.16.2,mp-760376,-7.436609148,-2.6674177285166665,,,
20.0,3.0,KTiO3,281.0911824858956,3.1891738806330494,Hexagonal,P6_3/mmc,194.0,6/mmm,0.1,1.16.2,mp-1180658,-7.4266896085,-2.6574981890166667,,,['icsd-94775']
30.0,3.0,KTiCl3,778.4020100040376,2.474473718315038,Hexagonal,P6_3,173.0,6,0.1,1.16.2,mp-568270,-4.922709479999999,-2.012409291266666,,,['icsd-154259']
30.0,3.0,KTiBr3,921.9412147481581,3.5303362740080293,Hexagonal,P6_3,173.0,6,0.1,1.16.2,mp-567718,-4.4520400953333334,-1.7190449046000003,,,['icsd-154260']
30.0,3.0,KTiI3,1192.1295743477185,3.908629323269728,Hexagonal,P6_3,173.0,6,0.1,1.16.2,mp-640578,-3.917784469,-1.2325864662666666,,,['icsd-154261']
20.0,3.0,KVO3,313.27195695543344,2.9267540433941828,Orthorhombic,Pbcm,57.0,mmm,0.1,1.16.2,mp-18815,-7.418503008500001,-2.4116287783500012,33.711181419999996,3.196124796666666,"['icsd-1486', 'icsd-33706', 'icsd-44528']"
5.0,3.0,KVO3,57.204585275290995,4.006977597551768,Cubic,Pm-3m,221.0,m-3m,0.1,1.16.2,mp-1076633,-7.201591718,-2.1947174878500006,,,
5.0,3.0,KVF3,70.41227003340603,3.467540209722954,Cubic,Pm-3m,221.0,m-3m,0.1,1.16.2,mp-557257,-6.230437906000001,-3.0446895221000005,8.589164990000006,2.2611635000000025,['icsd-28145']
10.0,3.0,KVCl3,255.09335182458014,2.5569296706534956,Hexagonal,P6_3/mmc,194.0,6/mmm,0.1,1.16.2,mp-1205604,-4.991496066,-1.8435130666,,,
5.0,3.0,KCrO3,57.72427493335193,4.00124031772841,Cubic,Pm-3m,221.0,m-3m,0.1,1.16.2,mp-1076732,-6.79726811,-1.6765655998500002,,,
10.0,3.0,KCrF3,144.81653079525373,3.396139663724107,Tetragonal,I4/mcm,140.0,4/mmm,0.1,1.16.2,mp-1180767,-6.2306271970000005,-2.9310505331,,,
10.0,3.0,KCrF3,144.40926392615722,3.4057175476510455,Orthorhombic,Ibam,72.0,mmm,0.1,1.16.2,mp-1180782,-6.230846555,-2.9312698911,,,['icsd-172846']
10.0,3.0,KCrF3,143.85218425808222,3.4189064749571396,Monoclinic,C2/m,12.0,2/m,0.1,1.16.2,mp-556365,-6.233367434,-2.9337907701,7.99844808674219,2.3841701633183283,"['icsd-169764', 'icsd-172845']"
10.0,3.0,KCrF3,143.9373720095832,3.4168830327396837,Tetragonal,I4/m,87.0,4/m,0.1,1.16.2,mp-560547,-6.228462199000001,-2.9288855351,10.28555512221766,2.4649587013449064,
5.0,3.0,KCrF3,75.13200290455114,3.2730204518938284,Cubic,Pm-3m,221.0,m-3m,0.1,1.16.2,mp-555036,-6.1468496660000005,-2.8472730021000006,,,
5.0,3.0,KCrF3,77.09583164614405,3.1896482189467568,Tetragonal,P4/mmm,123.0,4/mmm,0.1,1.16.2,mp-566131,-6.206554186,-2.9069775221,,,"['icsd-172844', 'icsd-27690', 'icsd-169765']"
5.0,3.0,KCrCl3,123.17031129372425,2.6619976931868194,Tetragonal,P4mm,99.0,4mm,0.1,1.16.2,mp-998420,-4.992647327999999,-1.7308360485999998,,,
5.0,3.0,KMnO3,61.91950425785535,3.809040682836771,Cubic,Pm-3m,221.0,m-3m,0.1,1.16.2,mp-1184948,-6.504970762000001,-1.4824746874362078,,,
20.0,3.0,KMnF3,307.6339390337806,3.2609379509988563,Orthorhombic,Pnma,62.0,mmm,0.1,1.16.2,mp-1180807,-6.221887712,-3.020517483686207,,,
20.0,3.0,KMnF3,290.87827856162966,3.448779990624073,Orthorhombic,Pnma,62.0,mmm,0.1,1.16.2,mp-558046,-6.222718584499999,-3.0213483561862065,,,"['icsd-35507', 'icsd-31822', 'icsd-31821']"
5.0,3.0,KMnF3,73.17514769812144,3.4273083771181687,Cubic,Pm-3m,221.0,m-3m,0.1,1.16.2,mp-555123,-6.220475058,-3.0191048296862064,13.39113891666666,2.224995489999998,"['icsd-59959', 'icsd-75412', 'icsd-44783', 'icsd-246920', 'icsd-15423', 'icsd-59957', 'icsd-189367', 'icsd-75409', 'icsd-59958', 'icsd-201254', 'icsd-75411', 'icsd-246919', 'icsd-43721', 'icsd-37254', 'icsd-75410', 'icsd-201255', 'icsd-75413']"
10.0,3.0,KMnF3,145.31715903321,3.4516749208579816,Tetragonal,I4/mcm,140.0,4/mmm,0.1,1.16.2,mp-555359,-6.222539082,-3.021168853686207,9.962185469837024,2.232283806666667,"['icsd-246921', 'icsd-75414']"