material_id,formula_pretty,icsd,crystal_system,symbol,number,point_group,nsites,nelements,volume,density,energy_per_atom,formation_energy_per_atom
mp-675069,LiNbO3,,Triclinic,P1,1.0,1,70.0,3.0,778.319584001562,4.415984295457480,-8.263480592857140,-2.89342178477381
mp-686057,LiNbO3,,Triclinic,P1,1.0,1,40.0,3.0,445.40877225707100,4.409493062654660,-8.259485732750000,-2.8894269246666700
mp-3731,LiNbO3,"['icsd-35014', 'icsd-28301', 'icsd-61118', 'icsd-28298', 'icsd-90745', 'icsd-167130', 'icsd-90746', 'icsd-94493', 'icsd-28302', 'icsd-247736', 'icsd-250775', 'icsd-28296', 'icsd-247734', 'icsd-169697', 'icsd-28300', 'icsd-155360', 'icsd-415526', 'icsd-109458', 'icsd-28294', 'icsd-94492', 'icsd-28299', 'icsd-155361', 'icsd-164933', 'icsd-84578', 'icsd-169696', 'icsd-169695', 'icsd-247737', 'icsd-164260', 'icsd-28297', 'icsd-28295', 'icsd-247735', 'icsd-74469']",Trigonal,R3c,161.0,m,40.0,3.0,429.06236195769600,4.577485851594530,-8.270339836,-2.900281027916670
mp-1196213,LiNbO3,['icsd-182033'],Monoclinic,P2_1/c,14.0,2/m,40.0,3.0,486.2850493830290,4.0388387300924300,-8.257009209,-2.8869504009166700
mp-674361,LiNbO3,,Triclinic,P1,1.0,1,50.0,3.0,559.9273656950110,4.384557291808810,-8.2602834186,-2.890224610516670
mp-776108,LiNbO3,,Orthorhombic,Pbcm,57.0,mmm,40.0,3.0,447.33750279178000,4.390481189383470,-8.240503241500000,-2.8704444334166700
mp-1185387,LiNdO3,,Cubic,Pm-3m,221.0,m-3m,5.0,3.0,53.67410237173960,6.162155477543920,-6.602905440000000,-2.2994781534166700
mp-758501,LiNiF3,,Trigonal,R-3,148.0,-3,10.0,3.0,101.62203983838700,4.007619956980740,-5.332537152,-2.6478378621666700
mp-1185261,LiNiO3,,Cubic,Pm-3m,221.0,m-3m,5.0,3.0,53.80230863498620,3.5071240682157300,-5.21204689,-0.7062217539166670
mp-1078358,LiOsO3,['icsd-252433'],Trigonal,R3c,161.0,3m,10.0,3.0,98.51533001061100,8.26496819293442,-7.340590436000000,-1.7453191499166700
mp-1078188,LiOsO3,['icsd-252432'],Trigonal,R-3c,167.0,-3m,10.0,3.0,99.41236306148030,8.190390450235950,-7.334649332,-1.7393780459166700
mp-1185263,LiPaO3,,Cubic,Pm-3m,221.0,m-3m,5.0,3.0,80.52091246018040,5.8975088322415200,-8.598911058,-3.3461803259166700
mp-1185388,LiPmO3,,Cubic,Pm-3m,221.0,m-3m,5.0,3.0,52.5712357067057,6.31537090733444,-6.599003102,-2.299096837416670
mp-1202801,LiPO3,['icsd-638'],Monoclinic,Pc,7.0,m,100.0,3.0,1215.86885289899,2.3466647638546400,-7.135393510700000,-2.702935209283330
mp-557189,LiPO3,['icsd-51630'],Monoclinic,P2/c,13.0,2/m,100.0,3.0,1212.1365465148000,2.3538904117446100,-7.1338721425000000,-2.701413841083330
mp-29195,LiPO3,['icsd-85714'],Monoclinic,P2_1/c,14.0,2/m,60.0,3.0,703.0385066061370,2.435061437820980,-7.136383174833330,-2.7039248734166700
mp-1185404,LiPrO3,,Cubic,Pm-3m,221.0,m-3m,5.0,3.0,54.47924863528780,5.969453574381730,-6.607027908000000,-2.3010489569166700
mp-8189,LiReO3,['icsd-35012'],Trigonal,R3c,161.0,3m,10.0,3.0,103.97122513168800,7.702759784833870,-7.945042249000000,-2.106339011916670
mp-1185420,LiRuO3,,Cubic,Pm-3m,221.0,m-3m,5.0,3.0,56.39139875519790,4.593951862652350,-6.663394638,-1.458716329916670
mp-770932,LiSbO3,,Monoclinic,C2/m,12.0,2/m,10.0,3.0,115.39919354575600,5.085233537973150,-6.29452644,-2.118928391916670
mp-4995,LiSbO3,"['icsd-24051', 'icsd-203032', 'icsd-39574']",Orthorhombic,Pnna,52.0,mmm,20.0,3.0,215.50013311485200,5.4462318959327900,-6.2945555215000000,-2.1189574734166700
mp-756951,LiSbO3,,Monoclinic,C2/m,12.0,2/m,10.0,3.0,123.56573172016400,4.7491472037159600,-6.253422082,-2.0778240339166700
mp-752636,LiSbO3,,Cubic,P2_13,198.0,23,20.0,3.0,218.24375667597400,5.377765286043910,-6.205745034,-2.030146985916670
mp-28835,LiScI3,['icsd-73339'],Hexagonal,P-6c2,188.0,-6m2,10.0,3.0,325.35521750043400,4.41588947498251,-3.910419103,-1.3781208986666700
mp-1211104,LiSeO3,,Orthorhombic,P2_12_12_1,19,222,20,3,339.692268740851,2.61819149915493,-5.48385317,-1.43487307438542
mp-1185414,LiSiO3,,Cubic,Pm-3m,221.0,m-3m,5.0,3.0,43.19374764725570,3.1917989373979300,-6.829866492000000,-2.395005085916670
mp-973136,LiSmO3,,Cubic,Pm-3m,221.0,m-3m,5.0,3.0,52.097227165665300,6.543675364096960,-6.584905318,-2.2913902909166700
mp-998230,LiSnCl3,,Trigonal,R3m,160.0,3m,5.0,3.0,130.6821218175450,2.9480824422162100,-3.9699607620000000,-1.6771398216666700
mp-998591,LiSnCl3,,Trigonal,R3c,161.0,3m,10.0,3.0,253.14696632577600,3.0437786747645300,-3.9804789290000000,-1.687657988666670
mp-1105216,LiTaO3,,Orthorhombic,Cmcm,63.0,mmm,10.0,3.0,145.72326093272600,5.375939422972850,-8.701202891,-2.979849564916670
mp-754345,LiTaO3,,Tetragonal,P4/mbm,127.0,4/mmm,10.0,3.0,116.86981919174200,6.703179903163180,-8.760660486,-3.0393071599166700
mp-3666,LiTaO3,"['icsd-239375', 'icsd-164259', 'icsd-239373', 'icsd-9540', 'icsd-84226', 'icsd-239376', 'icsd-239374', 'icsd-9537', 'icsd-84579', 'icsd-239372', 'icsd-108874', 'icsd-239379', 'icsd-239378', 'icsd-239377']",Trigonal,R3c,161.0,3m,10.0,3.0,105.12489484369400,7.452082824503240,-8.849305455,-3.1279521289166700
mp-1105326,LiTaO3,"['icsd-239382', 'icsd-239380']",Orthorhombic,Pnma,62.0,mmm,20.0,3.0,270.2037363208660,5.798583202136880,-8.5946519535,-2.8732986274166700
mp-1105280,LiTaO3,"['icsd-239383', 'icsd-239382', 'icsd-239384', 'icsd-239380']",Orthorhombic,Pnma,62.0,mmm,20.0,3.0,214.7308672182760,7.296570199160670,-8.7388514435,-3.0174981174166700
mp-862870,LiTcO3,,Cubic,Pm-3m,221.0,m-3m,5.0,3.0,57.23804068843270,4.4369358797055100,-7.334157064,-1.912231474916670
mp-675460,LiTiCl3,,Tetragonal,P4/mmm,123.0,4/mmm,5.0,3.0,124.4014875171030,2.151293405634960,-4.831463750000000,-1.761458777333330
mp-676210,LiTiCl3,,Monoclinic,Cm,8.0,m,20.0,3.0,537.6464541027920,1.991078692731820,-4.938586685,-1.8685817123333300
mp-1185236,LiTmO3,,Cubic,Pm-3m,221.0,m-3m,5.0,3.0,48.28906697313100,7.698441212061700,-6.4710096340000000,-2.2260447492500000
mp-8007,LiUO3,['icsd-28528'],Trigonal,R3c,161.0,3m,10.0,3.0,126.88718923279900,7.6679922514543800,-8.957352079,-3.3492722769166700
mp-1181180,LiUO3,,Orthorhombic,Amm2,38.0,mm2,10.0,3.0,166.0908285449960,5.858059667529090,-8.749329151000000,-3.1412493489166700
mp-545712,LiUO3,,Cubic,Pm-3m,221.0,m-3m,5.0,3.0,78.1976185374707,6.221225160327000,-8.748317654000000,-3.1402378519166700
mp-777676,LiVF3,,Monoclinic,C2/c,15.0,2/m,20.0,3.0,271.50698533318700,2.810372255258700,-6.3415311270000000,-2.996077959166670
mp-849502,LiVF3,,Triclinic,P-1,2.0,-1,90.0,3.0,1175.1438629504700,2.9219066297814300,-6.317487076555560,-2.9720339087222200
mp-782665,LiVF3,,Orthorhombic,Pbca,61.0,mmm,80.0,3.0,1037.140391065540,2.9428444027925200,-6.358289442375000,-3.0128362745416700
mp-752911,LiVF3,,Orthorhombic,Pnma,62.0,mmm,20.0,3.0,229.38442176141800,3.3264495157519900,-6.3760113795000000,-3.0305582116666700
mp-752607,LiVF3,,Trigonal,R-3,148.0,-3,10.0,3.0,118.24506596419600,3.22650121790436,-6.366718601,-3.021265433166670
mp-778509,LiVF3,,Cubic,P2_13,198.0,23,20.0,3.0,235.5484779962300,3.23939982622827,-6.3406433275,-2.9951901596666700
mp-752619,LiVF3,,Monoclinic,P2_1/m,11.0,2/m,10.0,3.0,119.44021064285700,3.194216146231120,-6.332621882,-2.9871687141666700
mp-753024,LiVF3,,Hexagonal,P6_3/mmc,194.0,6/mmm,10.0,3.0,175.08356519984300,2.179061460789820,-6.320171929,-2.974718761166670
mp-777894,LiVF3,,Orthorhombic,Pnna,52.0,mmm,20.0,3.0,239.84395044135200,3.181383967722380,-6.3842221985,-3.0387690306666700
mp-756643,LiVF3,,Monoclinic,C2/c,15.0,2/m,20.0,3.0,252.65339511939400,3.0200888388170600,-6.311386476,-2.9659333081666700
mp-752764,LiVF3,,Trigonal,R3c,161.0,3m,10.0,3.0,107.34272053522600,3.5542032793873400,-6.393293879,-3.0478407111666700
mp-777551,LiVF3,,Cubic,P2_13,198.0,23,20.0,3.0,234.47751686904100,3.254195578655350,-6.3746445750000000,-3.0291914071666700
mp-777893,LiVF3,,Orthorhombic,Pccn,56.0,mmm,40.0,3.0,471.76827114596800,3.234790236468580,-6.3906481605,-3.0451949926666700
mp-754098,LiVO3,,Monoclinic,C2/m,12.0,2/m,10.0,3.0,109.48133773155700,3.2118540454822300,-7.483950119000000,-2.317371104916670
mp-19373,LiVO3,"['icsd-2899', 'icsd-51443']",Monoclinic,C2/c,15.0,2/m,20.0,3.0,231.8214352176780,3.033697700712840,-7.574862678000000,-2.408283663916670
mp-1176521,LiVO3,,Monoclinic,C2/m,12.0,2/m,10.0,3.0,104.89827015989500,3.35218185163503,-7.512539812,-2.345960797916670
mp-763200,LiVO3,,Monoclinic,C2,5.0,2,10.0,3.0,107.92854975418000,3.25806358279442,-7.5099917760000000,-2.3434127619166700
mp-19440,LiVO3,,Monoclinic,C2/c,15.0,2/m,20.0,3.0,272.33946013428700,2.5823512855942500,-7.5945367915,-2.4279577774166700
mp-1176510,LiVS3,,Triclinic,P-1,2.0,-1,10.0,3.0,207.54724512131100,2.4654792009840100,-5.822289908,-1.1418542005416700
mp-1185417,LiYbO3,,Cubic,Pm-3m,221.0,m-3m,5.0,3.0,50.86101616474110,7.443193166766770,-5.462257234,-1.8045377779166700
mp-976283,LiYO3,,Cubic,Pm-3m,221.0,m-3m,5.0,3.0,50.121167612811500,4.765657634060680,-6.881439394,-2.2383473712500000
mp-754435,LuAlO3,,Trigonal,R-3c,167.0,-3m,10.0,3.0,100.49658482659100,8.259909025380910,-8.345041552,-3.7237230552500000
mp-756850,LuAlO3,,Orthorhombic,Cmcm,63.0,mmm,30.0,3.0,371.8080788698570,6.697751032351870,-8.328935587333330,-3.707617090583330
mp-755574,LuAlO3,,Orthorhombic,Pnma,62.0,mmm,20.0,3.0,202.06121305170800,8.216249279040950,-8.406215403500000,-3.7848969067500000
mp-1185485,LuAlO3,,Cubic,Pm-3m,221.0,m-3m,5.0,3.0,49.724309536241900,8.346949970457590,-8.171755614,-3.55043711725
mp-755358,LuAlO3,,Hexagonal,P6_3/mmc,194.0,6/mmm,10.0,3.0,114.12048248056100,7.273827011470190,-8.365620775,-3.7443022782500000
mp-772801,LuBiO3,,Trigonal,R-3,148.0,-3,10.0,3.0,152.59323552308700,9.400974309080120,-7.475031207000000,-2.8347300502500000
mp-1176501,LuBiO3,,Trigonal,R3c,161.0,3m,10.0,3.0,151.4912945230260,9.46935658189858,-7.506134075,-2.8658329182500000
mp-760461,LuBO3,,Orthorhombic,Cmcm,63.0,mmm,10.0,3.0,117.68929086573700,6.596938601391650,-8.749382555,-3.541300870083330
mp-7560,LuBO3,"['icsd-16525', 'icsd-194864']",Trigonal,R-3c,167.0,-3m,10.0,3.0,109.98367787860600,7.059129507739580,-8.778143964,-3.5700622790833300
mp-1222450,LuBO3,,Orthorhombic,Ama2,40.0,mm2,10.0,3.0,113.66817285947000,6.830311479031600,-8.694018302,-3.485936617083330
mp-550950,LuCoO3,['icsd-172052'],Orthorhombic,Pnma,62.0,mmm,20.0,3.0,201.7678731337940,9.280036319735290,-7.939461358,-2.6455944682500000
mp-755471,LuCrO3,"['icsd-251093', 'icsd-251094']",Orthorhombic,Pnma,62.0,mmm,20.0,3.0,210.0228117255140,8.695893111836790,-9.0573971395,-3.25458431475
mp-1193395,LuFeO3,"['icsd-185935', 'icsd-183152']",Hexagonal,P6_3cm,185.0,6mm,30.0,3.0,356.53614196145700,7.791219595066050,-8.468754416333330,-2.9025468435833300
mp-1185488,LuGaO3,,Cubic,Pm-3m,221.0,m-3m,5.0,3.0,55.12542125628240,8.816625421750300,-7.231202088000000,-2.7533795527500000
mp-755342,LuGaO3,,Hexagonal,P6_3/mmc,194.0,6/mmm,10.0,3.0,121.21093888475200,8.019411365090510,-7.67745922,-3.1996366847500000
mp-755792,LuGaO3,,Orthorhombic,Pnma,62.0,mmm,20.0,3.0,218.7536126207890,8.887079570664810,-7.6441232365000000,-3.1663007012500000
mp-768505,LuGaO3,,Hexagonal,P6_3cm,185.0,6mm,30.0,3.0,349.22964111405200,8.350153593190140,-7.698665589333330,-3.220843054083330
mp-1185514,LuGeO3,,Cubic,Pm-3m,221.0,m-3m,5.0,3.0,58.23110114881500,8.429584418052780,-7.058339924,-2.2615310222500000
mp-1237926,LuMgSe3,,Monoclinic,C2/m,12.0,2/m,10.0,3.0,282.05813354481300,5.135447972186600,-4.701769016,-1.3799760154062500
mp-1232147,LuMgSe3,,Monoclinic,C2/m,12.0,2/m,20.0,3.0,538.4867914860700,5.379871494912680,-4.7352018205,-1.4134088199062500
mp-21125,LuMnO3,"['icsd-162211', 'icsd-160377', 'icsd-160376']",Orthorhombic,Pnma,62.0,mmm,20.0,3.0,225.3337197434040,8.19174681149193,-8.765617151500000,-3.061010762336210
mp-18808,LuMnO3,"['icsd-162204', 'icsd-98058', 'icsd-98059', 'icsd-158896', 'icsd-158897', 'icsd-280779', 'icsd-15882', 'icsd-158898', 'icsd-290487']",Hexagonal,P6_3cm,185.0,6mm,30.0,3.0,353.34289219579900,7.836057358160110,-8.815923649666670,-3.111317260502870
mp-1105866,LuNiO3,['icsd-191792'],Monoclinic,P2_1/c,14.0,2/m,20.0,3.0,209.4798371692060,8.93078999991922,-7.563221223500000,-2.5349905567500000
mp-19327,LuNiO3,"['icsd-191796', 'icsd-92051']",Orthorhombic,Pnma,62.0,mmm,20.0,3.0,200.82217848352900,9.315805899042620,-7.564602390500000,-2.536371723750000
mp-1185498,LuNpO3,,Cubic,Pm-3m,221.0,m-3m,5.0,3.0,74.00526393698390,10.320754811804400,-9.570101218000000,-3.108341951000000
mp-1185490,LuPdO3,,Cubic,Pm-3m,221.0,m-3m,5.0,3.0,62.275768249188400,8.782822082118300,-6.662980226000000,-1.754800533250000
mp-1185529,LuReO3,,Cubic,Pm-3m,221.0,m-3m,5.0,3.0,61.92415282345700,10.972236067625200,-8.304095138,-1.9429863702500000
mp-1205366,LuRhO3,['icsd-188152'],Orthorhombic,Pnma,62.0,mmm,20.0,3.0,218.14931123596700,9.922030465179360,-7.958022456500000,-2.612957551750000
mp-973681,LuRhO3,,Cubic,Pm-3m,221.0,m-3m,5.0,3.0,60.42244361076050,8.955629658015380,-7.234465068,-1.88940016325
mp-772180,LuScO3,,Hexagonal,P6_3cm,185.0,6mm,30.0,3.0,391.5342710979170,6.817693970880810,-9.145822131333330,-4.007124979583330
mp-776593,LuScO3,,Orthorhombic,Pnma,62.0,mmm,20.0,3.0,243.07288147061400,7.321153565980170,-9.122406674,-3.98370952225
mp-768293,LuSeO3,,Monoclinic,P2_1/c,14,2/m,40,3,606.401787175432,6.61420992344108,-7.1159742635,-2.54458863721875
mp-973655,LuSiO3,,Cubic,Pm-3m,221.0,m-3m,5.0,3.0,49.85358501080960,8.362076567951650,-7.67381671,-2.71654977325
mp-754231,LuTiO3,,Orthorhombic,Pnma,62.0,mmm,20.0,3.0,226.5833669216120,7.939284417974270,-9.106556190000000,-3.6552544559166700
mp-754597,LuTlO3,,Orthorhombic,Pnma,62.0,mmm,20.0,3.0,278.6845902675020,10.18540535193220,-6.875757564500000,-2.531025604416670
mp-973536,LuUO3,,Cubic,Pm-3m,221.0,m-3m,5.0,3.0,73.67166685696590,10.390680186641100,-9.180594136,-3.0501088032500000
mp-973486,LuVO3,,Cubic,Pm-3m,221.0,m-3m,5.0,3.0,57.22734779374250,7.947822037687010,-8.455128082,-2.76614353725
mp-755583,LuVO3,"['icsd-185830', 'icsd-185841']",Orthorhombic,Pnma,62.0,mmm,20.0,3.0,225.24094157379800,8.077266464533320,-9.013287189500000,-3.324302644750000
mp-1210575,MgAgF3,,Cubic,Pm-3m,221.0,m-3m,5.0,3.0,85.15316324173550,3.688900357296800,-3.628846704,-1.5953921128333300
mp-998418,MgAgF3,,Trigonal,R-3c,167.0,-3m,10.0,3.0,118.96793829688500,5.2807762966102300,-4.806576408,-2.7731218168333300
mp-998358,MgAgF3,,Cubic,Pm-3m,221.0,m-3m,5.0,3.0,63.436080433127000,4.951780314335950,-4.79154036,-2.7580857688333300
mp-1185841,MgAlO3,,Cubic,Pm-3m,221.0,m-3m,5.0,3.0,49.60497747034920,3.3235815349581700,-6.581299996,-2.5441155932500000
mp-1185692,MgBeO3,,Cubic,Pm-3m,221.0,m-3m,5.0,3.0,42.52784519741570,3.175034331029490,-5.849290492,-1.81333868225
mp-1185847,MgBiO3,,Cubic,Pm-3m,221.0,m-3m,5.0,3.0,60.95774362961120,7.662396584623500,-5.71506759,-1.6589005272500000
mp-1376863,MgBiO3,,Orthorhombic,Pnma,62.0,mmm,20.0,3.0,267.46913094087600,6.98521590062872,-6.0475375975,-1.99137053475
mp-1185693,MgBO3,,Cubic,Pm-3m,221.0,m-3m,5.0,3.0,37.83958725006120,3.647354163171600,-6.3307138820000000,-1.7067662910833300
mp-1199652,MgBO3,"['icsd-109099', 'icsd-4227']",Monoclinic,P2_1/c,14.0,2/m,40.0,3.0,417.8595139301740,2.6423115231454200,-7.16188117775,-2.537933586833330
mp-546079,MgCO3,['icsd-161821'],Orthorhombic,C222_1,20.0,222,10.0,3.0,90.76659996550490,3.084978942928660,-7.205036177000000,-2.0712338417500000
mp-5348,MgCO3,"['icsd-94586', 'icsd-94585', 'icsd-80870', 'icsd-94578', 'icsd-77481', 'icsd-63663', 'icsd-94581', 'icsd-77486', 'icsd-94584', 'icsd-77485', 'icsd-40120', 'icsd-40118', 'icsd-67875', 'icsd-77484', 'icsd-73731', 'icsd-94588', 'icsd-180346', 'icsd-67812', 'icsd-94580', 'icsd-40119', 'icsd-156763', 'icsd-77483', 'icsd-156747', 'icsd-100675', 'icsd-10264', 'icsd-94587', 'icsd-40117', 'icsd-52150', 'icsd-94583', 'icsd-180347', 'icsd-40121', 'icsd-94582', 'icsd-94579', 'icsd-77482']",Trigonal,R-3c,167.0,-3m,10.0,3.0,92.60777472300770,3.023645157788730,-7.58309781,-2.4492954747500000
mp-2647164,MgCO3,,Monoclinic,C2/m,12.0,2/m,60.0,3.0,546.6588860031460,3.0733577020445600,-7.268449153166670,-2.1346468179166700
mp-1076820,MgCoO3,,Cubic,Pm-3m,221.0,m-3m,5.0,3.0,50.55166582011620,4.310899696811380,-6.06259998,-1.3528671842500000
mp-756102,MgCoO3,,Orthorhombic,Pnma,62.0,mmm,20.0,3.0,182.3366975439390,4.780675833063920,-6.521940485,-1.8122076892500000
mp-761524,MgCoO3,,Trigonal,R-3,148.0,-3,10.0,3.0,95.380426271781,4.569557284977730,-6.547917791000000,-1.8381849952500000
mp-755711,MgCoO3,,Monoclinic,C2/c,15.0,2/m,20.0,3.0,200.25535230021800,4.352905594863570,-6.510295363500000,-1.8005625677500000
mp-1346485,MgCrO3,,Orthorhombic,Pnma,62.0,mmm,20.0,3.0,193.58508667463800,4.264870753147210,-7.6111173700000000,-2.392438639250000
mp-2225290,MgCrO3,,Monoclinic,Pm,6.0,m,5.0,3.0,75.77346345087480,2.7239594734223600,-7.559965722000000,-2.3412869912500000
mp-1076317,MgCuO3,,Cubic,Pm-3m,221.0,m-3m,5.0,3.0,51.9444260137228,4.342774019810360,-5.2701007000000000,-1.1621901292500000
mp-1076368,MgFeO3,,Cubic,Pm-3m,221.0,m-3m,5.0,3.0,53.40651528572360,3.984440686235030,-6.604848746000000,-1.6227752672500000
mp-1279364,MgFeO3,,Triclinic,P-1,2.0,-1,20.0,3.0,208.42994947102000,4.083771894673070,-6.998651236500000,-2.016577757750000
mp-1372708,MgFeO3,,Orthorhombic,Pnma,62.0,mmm,20.0,3.0,199.09919819453100,4.275157194888500,-6.961707060500000,-1.9796335817500000
mp-752416,MgFeO3,,Monoclinic,C2/c,15.0,2/m,20.0,3.0,224.71514966344800,3.7878192499823900,-6.936062445500000,-1.9539889667500000
mp-754508,MgFeO3,,Trigonal,R-3,148.0,-3,10.0,3.0,104.72919564011200,4.063720553067420,-6.997321394000000,-2.0152479152500000
mp-1303831,MgFeO3,,Trigonal,R3,146.0,1,20.0,3.0,207.60205016957300,4.100057629308680,-6.998474354000000,-2.016400875250000
mp-4819,MgGeO3,"['icsd-201660', 'icsd-201664', 'icsd-201663', 'icsd-201661', 'icsd-35534', 'icsd-201662', 'icsd-196439']",Monoclinic,C2/c,15.0,2/m,20.0,3.0,217.50525204727700,4.426262699821200,-6.77348626,-2.5608114522500000
mp-3759,MgGeO3,"['icsd-40333', 'icsd-171787', 'icsd-171790', 'icsd-171788', 'icsd-171789', 'icsd-200415', 'icsd-171786']",Trigonal,R-3,148.0,-3,10.0,3.0,101.02990576537400,4.764605969186330,-6.753412117000000,-2.5407373092500000
mp-4575,MgGeO3,"['icsd-201665', 'icsd-201666', 'icsd-35533']",Orthorhombic,Pbca,61.0,mmm,80.0,3.0,896.0510826234960,4.297680803345860,-6.77236448675,-2.5596896790000000
mp-3047,MgGeO3,"['icsd-160855', 'icsd-160827', 'icsd-160854', 'icsd-160856', 'icsd-160848', 'icsd-160828', 'icsd-160841', 'icsd-160844', 'icsd-160843', 'icsd-160850', 'icsd-171825', 'icsd-171826', 'icsd-160836', 'icsd-160832', 'icsd-160852', 'icsd-160833', 'icsd-160839', 'icsd-160846', 'icsd-160851', 'icsd-160847', 'icsd-160840', 'icsd-160849', 'icsd-160825', 'icsd-160826', 'icsd-160837', 'icsd-160830', 'icsd-160831', 'icsd-160853', 'icsd-160824', 'icsd-160842', 'icsd-160829', 'icsd-160845', 'icsd-160834', 'icsd-160838', 'icsd-160835']",Orthorhombic,Cmcm,63.0,mmm,10.0,3.0,94.99514239706200,5.067287441541030,-6.616796403,-2.4041215952500000
mp-1016827,MgGeO3,,Cubic,Pm-3m,221.0,m-3m,5.0,3.0,51.40303697478930,4.682288444475780,-6.26025941,-2.04758460225
mp-29483,MgInBr3,['icsd-402533'],Orthorhombic,Pnma,62.0,mmm,20.0,3.0,583.8730184385520,4.30963786597113,-3.3349938225000000,-1.5327840685000000
mp-1185889,MgInO3,,Cubic,Pm-3m,221.0,m-3m,5.0,3.0,58.578606738934900,5.3043607570568500,-5.259050988,-1.4206450052500000
mp-1232299,MgInS3,,Monoclinic,C2/m,12.0,2/m,10.0,3.0,226.58847478864700,3.449025661509580,-4.295739852,-0.9434771758750000
mp-1232401,MgInSe3,,Trigonal,R-3,148.0,-3,30.0,3.0,1133.7556581207300,3.304244611367450,-3.7399101376666700,-0.7719704950729160
mp-1232193,MgInSe3,,Monoclinic,C2/m,12.0,2/m,20.0,3.0,594.8880359468760,4.1982197182029500,-3.738031033,-0.77009139040625
mp-1237970,MgInSe3,,Monoclinic,C2/m,12.0,2/m,10.0,3.0,288.03260275391100,4.335395817620320,-3.750943127,-0.7830034844062500
mp-1016826,MgIrO3,,Cubic,Pm-3m,221.0,m-3m,5.0,3.0,60.29937371610640,7.284422688581260,-6.250591468,-1.1948353952500000
mp-976446,MgMnO3,,Cubic,Pm-3m,221.0,m-3m,5.0,3.0,52.132135357475300,4.05295230583769,-7.002803858,-1.8823315628362100
mp-770581,MgMnO3,,Orthorhombic,Pnma,62.0,mmm,20.0,3.0,191.23146819271200,4.419545803881980,-7.416279121,-2.2958068258362100