material_id,formula_pretty,icsd,crystal_system,symbol,number,point_group,nsites,nelements,volume,density,energy_per_atom,formation_energy_per_atom
mp-19201,CaMnO3,"['icsd-157060', 'icsd-182812', 'icsd-161468', 'icsd-86645', 'icsd-161464', 'icsd-161465', 'icsd-153238', 'icsd-160305', 'icsd-35218', 'icsd-189133', 'icsd-161472', 'icsd-153239', 'icsd-161466', 'icsd-157059', 'icsd-162110', 'icsd-181177', 'icsd-166856', 'icsd-92083', 'icsd-161469', 'icsd-153237', 'icsd-182811', 'icsd-161467', 'icsd-161471', 'icsd-182823', 'icsd-169379', 'icsd-189134', 'icsd-165699', 'icsd-161463', 'icsd-50997', 'icsd-161470', 'icsd-93036']",Orthorhombic,Pnma,62.0,mmm,20.0,3.0,218.02043676963300,4.357036329648900,-7.7027377015,-2.5012014403362100
mp-1017467,CaMnO3,"['icsd-168902', 'icsd-168903', 'icsd-181782', 'icsd-168905']",Cubic,Pm-3m,221.0,m-3m,5.0,3.0,54.946370694131400,4.322045985981160,-7.6212630180000000,-2.4197267568362100
mp-989401,CaMoN3,,Orthorhombic,Pmm2,25.0,mm2,10.0,3.0,134.27188237425200,4.403590910704750,-8.318599774000000,-0.7464528209999980
mp-989649,CaMoN3,,Monoclinic,P2/m,10.0,2/m,10.0,3.0,157.61117288901900,3.7515007974899100,-8.338714055,-0.7665671019999990
mp-989635,CaMoN3,,Monoclinic,C2/m,12.0,2/m,10.0,3.0,140.0983293035420,4.220453189740690,-8.365483229,-0.7933362760000000
mp-607467,CaMoO3,,Monoclinic,P2_1/c,14.0,2/m,20.0,3.0,251.53959017651100,4.859133129267730,-8.158404337500000,-2.6201411127500000
mp-19012,CaMoO3,"['icsd-172790', 'icsd-246082']",Orthorhombic,Pnma,62.0,mmm,20.0,3.0,238.54423915062300,5.123847720243390,-8.152042065,-2.6137788402500000
mp-1045305,CaMoO3,,Triclinic,P-1,2.0,-1,20.0,3.0,251.89585819007400,4.852260631561580,-8.148709528,-2.6104463032500000
mp-4957,CaNbO3,"['icsd-51202', 'icsd-85569']",Orthorhombic,Pnma,62.0,mmm,20.0,3.0,253.67357057356100,4.738824683778580,-8.547165728,-3.1577715172500000
mp-1207078,CaNiH3,['icsd-171478'],Cubic,Pm-3m,221.0,m-3m,5.0,3.0,43.03193756126440,3.928127553226890,-4.1553816900000000,-0.5625987510000000
mp-1368210,CaNiO3,,Orthorhombic,Pnma,62.0,mmm,20.0,3.0,219.31057008526900,4.445141964557330,-6.2955513885,-1.7703908497500000
mp-754103,CaNiO3,,Hexagonal,P6_3mc,186.0,6mm,10.0,3.0,111.93005701039900,4.354802652635340,-6.278679832,-1.7535192932500000
mp-1016900,CaOsO3,,Cubic,Pm-3m,221.0,m-3m,5.0,3.0,61.7311750736624,7.486303590131470,-7.591910918000000,-1.977304229250000
mp-1213970,CaOsO3,,Orthorhombic,Pnma,62.0,mmm,20.0,3.0,235.8143206324520,7.839020401094240,-7.761224283500000,-2.1466175947500000
mp-20079,CaPbO3,['icsd-87825'],Orthorhombic,Pnma,62.0,mmm,20.0,3.0,275.27296614002500,7.1248211898553200,-6.2856399865,-2.1739773697500000
mp-756708,CaPrO3,,Orthorhombic,Pnma,62.0,mmm,20.0,3.0,326.0225185540030,4.665157857585110,-7.3414179785,-3.01610362475
mp-9789,CaPS3,['icsd-405192'],Monoclinic,P2_1/c,14.0,2/m,20.0,3.0,443.77881771096400,2.5032270219281400,-5.3232977715,-1.3576473740416700
mp-11007,CaPSe3,['icsd-412765'],Monoclinic,P2_1/c,14.0,2/m,20.0,3.0,507.1679981909680,4.032846886805640,-4.750454132,-1.169126768072920
mp-4784,CaPtO3,"['icsd-173278', 'icsd-160328']",Orthorhombic,Cmcm,63.0,mmm,10.0,3.0,114.94236831033700,8.18146661006258,-6.575624937000000,-1.9922650702500000
mp-989606,CaReN3,,Monoclinic,C2/c,15.0,2/m,20.0,3.0,312.5301702485130,5.702247561747390,-8.628822700000000,-0.736900331999999
mp-1016833,CaRhO3,,Cubic,Pm-3m,221.0,m-3m,5.0,3.0,61.82709777288520,5.129345954756470,-6.678481974,-1.8364871972500000
mp-1181917,CaRhO3,['icsd-164775'],Orthorhombic,Pnma,62.0,mmm,20.0,3.0,226.3073630109770,5.6053425683776600,-6.9220317135,-2.0800369367500000
mp-1078659,CaRhO3,['icsd-164774'],Orthorhombic,Cmcm,63.0,mmm,10.0,3.0,111.3420908940550,5.696544250411840,-6.93581445,-2.0938196732500000
mp-1193602,CaRhO3,['icsd-183583'],Monoclinic,P2_1/m,11.0,2/m,30.0,3.0,335.78585891721000,5.666693199260760,-6.935578542000000,-2.093583765250000
mp-1016835,CaRuO3,,Cubic,Pm-3m,221.0,m-3m,5.0,3.0,60.67733082827060,5.176309671364110,-7.286232304,-2.0622185932500000
mp-20947,CaRuO3,"['icsd-82976', 'icsd-165689', 'icsd-162776', 'icsd-165791', 'icsd-56698', 'icsd-82975', 'icsd-166221', 'icsd-82974', 'icsd-190466', 'icsd-69359', 'icsd-75568', 'icsd-82972', 'icsd-157114', 'icsd-82973', 'icsd-190465', 'icsd-82971', 'icsd-190467', 'icsd-51291', 'icsd-99451', 'icsd-82970']",Orthorhombic,Pnma,62.0,mmm,20.0,3.0,227.7433091928980,5.51646773750719,-7.4514657015,-2.2274519907500000
mp-1377563,CaSbO3,,Orthorhombic,Pnma,62.0,mmm,20.0,3.0,273.7490171218,5.09139665742592,-6.624212062000000,-2.429278611250000
mp-1340624,CaSbO3,,Monoclinic,P2_1/m,11.0,2/m,20.0,3.0,276.59592149863000,5.038992705300840,-6.632514745500000,-2.437581294750000
mp-1183534,CaScO3,,Cubic,Pm-3m,221.0,m-3m,5.0,3.0,68.15474941663650,3.241227074842480,-7.706464766000000,-3.0708377422500000
mp-557997,CaSeO3,['icsd-159880'],Monoclinic,P2_1/c,14,2/m,20,3,284.231354786736,3.9034417697446,-6.3760059105,-2.30769041221875
mp-754140,CaSeO3,,Orthorhombic,Pnma,62,mmm,20,3,288.97320915791,3.83938893774531,-6.364078226,-2.29576272771875
mp-5893,CaSiO3,"['icsd-240446', 'icsd-240453', 'icsd-240444', 'icsd-240443', 'icsd-240439', 'icsd-240450', 'icsd-240451', 'icsd-240438', 'icsd-240440', 'icsd-240445', 'icsd-240409', 'icsd-240406', 'icsd-40658', 'icsd-240411', 'icsd-240448', 'icsd-240442', 'icsd-240407', 'icsd-240449', 'icsd-240413', 'icsd-240412', 'icsd-240441', 'icsd-240452', 'icsd-240447', 'icsd-240410', 'icsd-240408']",Cubic,Pm-3m,221.0,m-3m,5.0,3.0,46.96632581831590,4.10700725534391,-7.658790582,-3.204593773250000
mp-4428,CaSiO3,"['icsd-16923', 'icsd-4442', 'icsd-98727']",Triclinic,P-1,2.0,-1,30.0,3.0,390.2425615855170,2.9657099437176500,-7.880057129333330,-3.425860320583330
mp-3387,CaSiO3,"['icsd-240415', 'icsd-240421', 'icsd-240418', 'icsd-240457', 'icsd-240420', 'icsd-240454', 'icsd-240458', 'icsd-240456', 'icsd-240460', 'icsd-240461', 'icsd-240414', 'icsd-240417', 'icsd-240419', 'icsd-240416', 'icsd-240459', 'icsd-240455']",Tetragonal,I4/mcm,140.0,4/mmm,10.0,3.0,93.95182669325760,4.106169037509770,-7.6616936980000000,-3.207496889250000
mp-4356,CaSiO3,,Cubic,Im-3,204.0,m-3,20.0,3.0,187.989360397809,4.10429697690311,-7.659303525,-3.2051067162500000
mp-3382,CaSiO3,"['icsd-240430', 'icsd-240437', 'icsd-240436', 'icsd-240434', 'icsd-240431', 'icsd-240435', 'icsd-240432', 'icsd-240433']",Tetragonal,P4/mbm,127.0,4/mmm,10.0,3.0,94.00639676203230,4.103785434537040,-7.659278372,-3.2050815632500000
mp-17552,CaSiO3,['icsd-87694'],Monoclinic,C2/c,15.0,2/m,30.0,3.0,410.09472876363400,2.8221436760360600,-7.882680439333330,-3.4284836305833300
mp-560885,CaSiO3,['icsd-240462'],Orthorhombic,Pnma,62.0,mmm,20.0,3.0,188.0809592100090,4.102298110406590,-7.6617654905,-3.2075686817500000
mp-649676,CaSiO3,['icsd-36311'],Monoclinic,P2_1/c,14.0,2/m,60.0,3.0,1157.9363364694300,1.9989807883303600,-7.5526469988333300,-3.098450190083330
mp-5096,CaSiO3,"['icsd-240425', 'icsd-240426', 'icsd-240463', 'icsd-240469', 'icsd-240423', 'icsd-240422', 'icsd-240468', 'icsd-240429', 'icsd-240428', 'icsd-240465', 'icsd-240464', 'icsd-240467', 'icsd-240427', 'icsd-240466', 'icsd-240424']",Orthorhombic,Imma,74.0,mmm,10.0,3.0,93.99326291098970,4.104358864003570,-7.661885077000000,-3.20768826825
mp-4429,CaSiO3,"['icsd-20571', 'icsd-201537', 'icsd-23567', 'icsd-33702']",Triclinic,P-1,2.0,-1,30.0,3.0,398.68262690453200,2.902926205593480,-7.902986693666670,-3.4487898849166700
mp-5733,CaSiO3,"['icsd-30884', 'icsd-201538', 'icsd-34908', 'icsd-20589']",Monoclinic,P2_1/c,14.0,2/m,60.0,3.0,797.3329242079570,2.90304391106308,-7.902994123666670,-3.4487973149166700
mp-561086,CaSiO3,"['icsd-87716', 'icsd-423129']",Monoclinic,C2/c,15.0,2/m,60.0,3.0,819.3157372160960,2.8251532169722300,-7.882777688666670,-3.428580879916670
mp-4853,CaSiO3,,Tetragonal,I4/mmm,139.0,4/mmm,20.0,3.0,187.86589811423500,4.106994251301070,-7.6592837915,-3.205086982750000
mp-1181886,CaSiO3,,Cubic,Im-3,204.0,m-3,20.0,3.0,188.03765431473500,4.1032428658105000,-7.6592618475,-3.20506503875
mp-1182670,CaSnO3,,Triclinic,P-1,2.0,-1,10.0,3.0,173.27347287152,3.9634060291314200,-5.779489395000000,-1.6084418212500000
mp-546910,CaSnO3,['icsd-27777'],Cubic,Pm-3m,221.0,m-3m,5.0,3.0,82.30907163608120,4.1717948788434400,-5.416595548,-1.2455479742500000
mp-7986,CaSnO3,"['icsd-181086', 'icsd-181087', 'icsd-56095', 'icsd-29149']",Cubic,Pm-3m,221.0,m-3m,5.0,3.0,67.24159084581590,5.106609751710350,-6.656275544000000,-2.485227970250000
mp-4438,CaSnO3,"['icsd-151591', 'icsd-151594', 'icsd-151598', 'icsd-151597', 'icsd-193658', 'icsd-151593', 'icsd-151596', 'icsd-151592', 'icsd-190603', 'icsd-59160', 'icsd-151595']",Orthorhombic,Pnma,62.0,mmm,20.0,3.0,248.80571219239800,5.520396786842770,-6.837476119500000,-2.6664285457500000
mp-4190,CaSnO3,"['icsd-29204', 'icsd-2373']",Trigonal,R-3,148.0,-3,10.0,3.0,134.53390939302400,5.104684240322320,-6.851495226,-2.6804476522500000
mp-866917,CaSnS3,,Orthorhombic,Amm2,38.0,mm2,5.0,3.0,124.56235415941700,3.3991749407447800,-4.778053584,-1.0931493168750000
mp-866826,CaSnS3,,Trigonal,R-3,148.0,-3,10.0,3.0,245.89291981375600,3.4438505438836300,-5.000754142,-1.3158498748750000
mp-1100379,CaSnS3,,Monoclinic,C2/c,15.0,2/m,60.0,3.0,1700.5627281387200,2.987782049879170,-4.931923421166670,-1.2470191540416700
mp-1100357,CaSnS3,,Monoclinic,C2/m,12.0,2/m,25.0,3.0,630.1849156487180,3.3594046945967200,-4.8178804836,-1.1329762164750000
mp-866894,CaSnS3,,Orthorhombic,Amm2,38.0,mm2,5.0,3.0,131.57279279396600,3.218060693458840,-4.578066252,-0.8931619848750000
mp-1100323,CaSnS3,,Hexagonal,P6_3/mmc,194.0,6/mmm,20.0,3.0,501.3774637944210,3.377967805848390,-4.619688876500000,-0.9347846093750010
mp-866845,CaSnS3,,Orthorhombic,Ima2,46.0,mm2,10.0,3.0,237.95322059908200,3.5587602618100500,-4.908704038,-1.2237997708750000
mp-1054609,CaSnS3,,Trigonal,R-3m,166.0,-3m,15.0,3.0,387.99217183951900,3.273848780077950,-4.7039865160000000,-1.0190822488750000
mp-1100340,CaSnS3,,Orthorhombic,P2_12_12_1,19.0,222,20.0,3.0,514.5442982539550,3.2915279345677900,-4.956830102,-1.2719258348750000
mp-1100371,CaSnS3,,Orthorhombic,Cmcm,63.0,mmm,30.0,3.0,777.3925338958660,3.267918440355780,-4.82186684,-1.1369625728750000
mp-866504,CaSnS3,,Monoclinic,P2_1,4.0,2,30.0,3.0,763.1222389932690,3.3290281256442500,-4.890827037000000,-1.2059227698750000
mp-1100358,CaSnS3,,Monoclinic,P2_1/c,14.0,2/m,40.0,3.0,1095.1147273793500,3.0930767141236600,-4.92024090025,-1.2353366331250000
mp-866505,CaSnS3,,Tetragonal,P4_1,76.0,4,100.0,3.0,2809.419067078960,3.0142119969243300,-4.9091017564,-1.224197489275
mp-866816,CaSnS3,,Cubic,Pm-3m,221.0,m-3m,5.0,3.0,125.83547952155800,3.3647841962276600,-4.59286501,-0.9079607428750000
mp-1100365,CaSnS3,,Orthorhombic,Pmc2_1,26.0,mm2,20.0,3.0,527.0690954827660,3.2133110170767900,-4.8131802415000000,-1.1282759743750000
mp-867022,CaSnS3,,Triclinic,P1,1.0,1,30.0,3.0,883.993703306268,2.8738387925293200,-4.887189198333330,-1.2022849312083300
mp-866519,CaSnS3,,Trigonal,R-3c,167.0,-3m,10.0,3.0,235.5703956907270,3.5947575804452800,-4.877091551,-1.1921872838750000
mp-867047,CaSnS3,,Monoclinic,C2,5.0,2,60.0,3.0,1629.5220744870400,3.1180374131635200,-4.8603325181666700,-1.1754282510416700
mp-866951,CaSnS3,,Trigonal,R-3m,166.0,-3m,15.0,3.0,373.4980460297500,3.4008951638676700,-4.637990930666670,-0.9530866635416670
mp-866820,CaSnS3,,Cubic,Pm-3m,221.0,m-3m,5.0,3.0,141.03626094188200,3.00213030316611,-4.067921308000000,-0.3830170408750010
mp-867053,CaSnS3,,Triclinic,P1,1.0,1,90.0,3.0,2491.749258894470,3.0586408979694200,-4.851595037666670,-1.1666907705416700
mp-1100375,CaSnS3,,Monoclinic,P2_1/c,14.0,2/m,60.0,3.0,1790.7564626008500,2.8372985941634000,-4.964343833333330,-1.2794395662083300
mp-866936,CaSnS3,,Orthorhombic,Pnma,62.0,mmm,20.0,3.0,466.99045618656900,3.6267056614082900,-4.8596792995,-1.1747750323750000
mp-1331908,CaSnS3,,Tetragonal,P4_3,78.0,4,100.0,3.0,2797.241358211790,3.0273342811543700,-4.9096085689,-1.2247043017750000
mp-1100345,CaSnS3,,Monoclinic,P2_1,4.0,2,10.0,3.0,252.0584884446200,3.3596109810195600,-4.96440673,-1.2795024628750000
mp-1238933,CaSnS3,,Orthorhombic,Pmc2_1,26.0,mm2,20.0,3.0,475.39592434803600,3.5625819333603800,-4.9400641805,-1.2551599133750000
mp-1100335,CaSnS3,,Triclinic,P-1,2.0,-1,30.0,3.0,812.6798833796340,3.1260222491891800,-4.982966499,-1.298062231875
mp-866629,CaSnS3,,Triclinic,P-1,2.0,-1,90.0,3.0,2460.235743879510,3.0978194710404500,-4.8893429901111100,-1.2044387229861100
mp-1100334,CaSnS3,,Orthorhombic,Amm2,38.0,mm2,5.0,3.0,132.86149795375100,3.1868467489825800,-4.597851624,-0.9129473568750000
mp-1100328,CaSnS3,,Hexagonal,P-6m2,187.0,-6m2,15.0,3.0,401.51073492207300,3.163620765215990,-4.845566586,-1.1606623188750000
mp-1100330,CaSnS3,,Triclinic,P-1,2.0,-1,30.0,3.0,893.9766403828440,2.841746956414050,-4.964158504666670,-1.279254237541670
mp-1100389,CaSnS3,,Monoclinic,C2,5.0,2,10.0,3.0,5583.926635824840,0.1516528638117840,-2.199625215,1.4852790521250000
mp-866787,CaSnS3,,Monoclinic,C2/c,15.0,2/m,120.0,3.0,3217.6469317947800,3.1581530861077500,-4.87137634375,-1.1864720766250000
mp-866844,CaSnS3,,Orthorhombic,Pnma,62.0,mmm,20.0,3.0,458.0671251767280,3.6973553398359300,-4.96161246,-1.2767081928750000
mp-866606,CaSnS3,,Monoclinic,P2_1/c,14.0,2/m,60.0,3.0,1521.189169567560,3.3400913544965600,-4.897321815666670,-1.212417548541670
mp-1100343,CaSnS3,,Monoclinic,Pm,6.0,m,20.0,3.0,504.40578386183400,3.3576873728699900,-4.77116527,-1.0862610028750000
mp-866495,CaSnS3,,Monoclinic,P2_1/c,14.0,2/m,20.0,3.0,503.22248597428900,3.3655827759692000,-4.910440429000000,-1.225536161875
mp-866471,CaSnS3,,Cubic,Fd-3m,227.0,m-3m,20.0,3.0,526.6296381842690,3.215992432774670,-4.7552729945,-1.0703687273750000
mp-1100344,CaSnS3,,Hexagonal,P6_3/mmc,194.0,6/mmm,40.0,3.0,1019.8534772836300,3.3213338366731900,-4.696124967,-1.0112206998750000
mp-1100381,CaSnS3,,Tetragonal,I4_1/a,88.0,4/m,80.0,3.0,2042.7044615367200,3.316460042391750,-5.0061546775000000,-1.3212504103750000
mp-866565,CaSnS3,,Cubic,P2_13,198.0,23,40.0,3.0,992.4378425645770,3.4130841421744100,-4.8382225747500000,-1.1533183076250000
mp-866811,CaSnS3,,Orthorhombic,Pnma,62.0,mmm,20.0,3.0,440.30320339824100,3.846524209235950,-4.9992920095,-1.3143877423750000
mp-866941,CaSnS3,,Monoclinic,P2_1/c,14.0,2/m,20.0,3.0,550.3127730062120,3.077589716886970,-4.9897667310000000,-1.3048624638750000
mp-866850,CaSnS3,,Orthorhombic,Cmcm,63.0,mmm,10.0,3.0,221.28021666936300,3.8269054431696100,-4.984162966,-1.2992586988750000
mp-1100325,CaSnS3,,Tetragonal,P4mm,99.0,4mm,5.0,3.0,134.3291361459510,3.1520282566160900,-4.847989588,-1.1630853208750000
mp-1100329,CaSnS3,,Orthorhombic,Cmcm,63.0,mmm,10.0,3.0,239.90321752509700,3.5298337153362600,-4.912291366,-1.2273870988750000
mp-866833,CaSnS3,,Hexagonal,P6_3/mmc,194.0,6/mmm,10.0,3.0,247.74747655944700,3.4180710027718100,-4.683644213,-0.9987399458750010
mp-989638,CaTcN3,,Monoclinic,C2/m,12.0,2/m,10.0,3.0,137.57271785456000,4.3476633381132400,-8.061781688,-0.5866369679999990
mp-989634,CaTcN3,,Monoclinic,C2/c,15.0,2/m,20.0,3.0,317.7861076091950,3.76429206575902,-8.0496891555,-0.5745444354999990
mp-998432,CaTcO3,,Monoclinic,Cm,8.0,m,5.0,3.0,61.075122732895600,5.059126951177650,-7.80810074,-2.3668397482500000
mp-1188853,CaTcO3,"['icsd-261342', 'icsd-261341']",Orthorhombic,Pnma,62.0,mmm,20.0,3.0,234.84739259201100,5.262767383604950,-7.9171406865,-2.4758796947500000
mp-998525,CaTcO3,,Tetragonal,P4mm,99.0,4mm,5.0,3.0,61.07621566601270,5.059036420234830,-7.808188792,-2.36692780025
mp-998543,CaTcO3,,Trigonal,R3c,161.0,3m,10.0,3.0,119.52833820373300,5.170101151039450,-7.887651867,-2.4463908752500000
mp-4019,CaTiO3,"['icsd-162911', 'icsd-74216', 'icsd-185443', 'icsd-16688', 'icsd-193648', 'icsd-163663', 'icsd-185447', 'icsd-185444', 'icsd-185454', 'icsd-74212', 'icsd-185451', 'icsd-97828', 'icsd-162916', 'icsd-185448', 'icsd-94568', 'icsd-150420', 'icsd-186224', 'icsd-185449', 'icsd-165801', 'icsd-50364', 'icsd-185452', 'icsd-51024', 'icsd-62149', 'icsd-71915', 'icsd-162915', 'icsd-185446', 'icsd-167888', 'icsd-167809', 'icsd-71916', 'icsd-162909', 'icsd-180956', 'icsd-162914', 'icsd-185453', 'icsd-163528', 'icsd-162908', 'icsd-162913', 'icsd-162917', 'icsd-85101', 'icsd-185445', 'icsd-162918', 'icsd-157115', 'icsd-163662', 'icsd-162912', 'icsd-185450', 'icsd-74215', 'icsd-174127', 'icsd-189135', 'icsd-74213', 'icsd-162910', 'icsd-74214', 'icsd-82487', 'icsd-96258', 'icsd-153172', 'icsd-93082', 'icsd-37263']",Orthorhombic,Pnma,62.0,mmm,20.0,3.0,224.09973769300100,4.02925941391082,-8.5050821395,-3.5568505334166700
mp-556003,CaTiO3,,Orthorhombic,Imma,74.0,mmm,10.0,3.0,112.52875726749500,4.0121121021892700,-8.494010028,-3.5457784219166700
mp-754701,CaTiO3,,Trigonal,R-3,148.0,-3,10.0,3.0,124.95341697913300,3.6131704101587700,-8.476729451,-3.5284978449166700
mp-3442,CaTiO3,"['icsd-162919', 'icsd-162920', 'icsd-162922', 'icsd-162921']",Tetragonal,I4/mcm,140.0,4/mmm,10.0,3.0,112.41312515722100,4.016239102380590,-8.486598432,-3.538366825916670
mp-1205364,CaTiO3,"['icsd-38212', 'icsd-29116']",Orthorhombic,Cmcm,63.0,mmm,20.0,3.0,225.02899171175900,4.012620644503750,-8.4924123725,-3.544180766416670
mp-5827,CaTiO3,"['icsd-31864', 'icsd-187294', 'icsd-165076', 'icsd-162923', 'icsd-153174', 'icsd-162924', 'icsd-187293', 'icsd-153173', 'icsd-162925', 'icsd-77060', 'icsd-162926', 'icsd-31865']",Cubic,Pm-3m,221.0,m-3m,5.0,3.0,58.83985762289640,3.836497971925330,-8.440614542,-3.492382935916670
mp-1205521,CaTlBr3,,Orthorhombic,Cmcm,63.0,mmm,10.0,3.0,328.6284841078920,4.892994481821510,-3.7733005040000000,-1.9678349006666700
mp-998787,CaTlCl3,,Orthorhombic,Cmcm,63.0,mmm,10.0,3.0,285.1063935878460,4.086550330740570,-4.210446287,-2.2276756856666700
mp-998151,CaTlCl3,,Monoclinic,Cm,8.0,m,5.0,3.0,157.40066040660000,3.7010696905685000,-4.17169119,-2.1889205886666700
mp-998615,CaTlF3,,Trigonal,R3c,161.0,3m,10.0,3.0,174.91206828325400,5.723793858077700,-5.3305470030000000,-3.3100110171666700
mp-1097061,CaTlF3,,Monoclinic,Cm,8.0,m,5.0,3.0,91.74087869651440,5.456458649449330,-5.32372567,-3.3031896841666700
mp-1206188,CaTlI3,,Orthorhombic,Cmcm,63.0,mmm,10.0,3.0,404.79414615376200,5.129160286873280,-3.256533485,-1.4988650696666700
mp-1183538,CaTmO3,,Cubic,Pm-3m,221.0,m-3m,5.0,3.0,77.96984479230310,5.473601075707320,-7.233149296000000,-2.9688490085833300
mp-1016853,CaVO3,,Cubic,Pm-3m,221.0,m-3m,5.0,3.0,56.19975561423260,4.107568071709150,-8.017946754,-2.8320323372500000
mp-1435359,CaVO3,,Monoclinic,P2_1/c,14.0,2/m,20.0,3.0,224.8006192053440,4.1075388958428900,-8.115363726000000,-2.929449309250000
mp-22608,CaVO3,"['icsd-237336', 'icsd-88978', 'icsd-81056']",Orthorhombic,Pnma,62.0,mmm,20.0,3.0,214.74298675462600,4.299918247158430,-8.123021790500000,-2.9371073737500000
mp-989616,CaWN3,,Monoclinic,C2/m,12.0,2/m,10.0,3.0,145.95522033096300,6.051179304803490,-8.850397692,-0.8557547149999990
mp-1431390,CaWO3,,Monoclinic,Cm,8.0,m,5.0,3.0,69.25007416783300,6.520245333558880,-8.406033696,-2.44527444725
mp-1342410,CaWO3,,Orthorhombic,Pnma,62.0,mmm,20.0,3.0,255.79037973460900,7.060898434255340,-8.5729237665,-2.61216451775
mp-1183544,CaYO3,,Cubic,Pm-3m,221.0,m-3m,5.0,3.0,82.06034800537800,3.581335142433150,-7.493833682,-2.831406256583330
mp-1183540,CaZnO3,,Cubic,Pm-3m,221.0,m-3m,5.0,3.0,58.258778748431600,4.374759928378610,-5.4239733800000000,-1.8028914552500000
mp-542112,CaZrO3,"['icsd-29003', 'icsd-56094']",Cubic,Pm-3m,221.0,m-3m,5.0,3.0,71.99498215571210,4.135496361472060,-8.55771869,-3.4790453612500000
mp-4571,CaZrO3,"['icsd-97463', 'icsd-183757', 'icsd-37264', 'icsd-183758', 'icsd-130053', 'icsd-97465', 'icsd-239370', 'icsd-167889', 'icsd-97464', 'icsd-97466']",Orthorhombic,Pnma,62.0,mmm,20.0,3.0,258.7265007863650,4.603084505750540,-8.7496117745,-3.670938445750000
mp-776024,CaZrO3,,Orthorhombic,Pba2,32.0,mm2,40.0,3.0,542.7856698013450,4.3882512500105200,-8.724246397750000,-3.6455730690000000
mp-7781,CaZrS3,['icsd-23286'],Orthorhombic,Pnma,62.0,mmm,20.0,3.0,450.7956097659230,3.352008296890530,-6.625294913500000,-2.032764891375
mp-28765,CBr3F,"['icsd-72369', 'icsd-72370']",Orthorhombic,Pnma,62,mmm,20,3,641.979573710352,2.80097988425703,-3.8943620875,-0.7345161975