material_id,formula_pretty,icsd,crystal_system,symbol,number,point_group,nsites,nelements,volume,density,energy_per_atom,formation_energy_per_atom
mp-1186758,SrTmO3,,Cubic,Pm-3m,221.0,m-3m,5.0,3.0,80.4155987800097,6.28884423301585,-7.323091074,-3.1220120719166700
mp-18717,SrVO3,"['icsd-96291', 'icsd-88982', 'icsd-108826']",Cubic,Pm-3m,221.0,m-3m,5.0,3.0,59.35966561911510,5.21885807260035,-8.00291119,-2.880218058583330
mp-989513,SrWN3,,Monoclinic,C2/m,12.0,2/m,10.0,3.0,152.79145926957800,6.813809556373790,-8.785319286,-0.8538975943333330
mp-989625,SrWN3,,Triclinic,P1,1.0,1,10.0,3.0,144.6505729883570,7.197288498726830,-8.788762037,-0.8573403453333330
mp-1186764,SrWO3,,Cubic,Pm-3m,221.0,m-3m,5.0,3.0,68.98501547948390,7.689681846972680,-8.354587706,-2.4570497425833300
mp-1186756,SrYbO3,,Cubic,Pm-3m,221.0,m-3m,5.0,3.0,80.39100889342020,6.375576154367510,-6.003040478,-2.3892069045833300
mp-1186757,SrZnO3,,Cubic,Pm-3m,221.0,m-3m,5.0,3.0,63.04788092844680,5.294603309951960,-5.430285770000000,-1.8724251305833300
mp-5076,SrZrO3,"['icsd-1522', 'icsd-89357', 'icsd-89356', 'icsd-89362', 'icsd-89361', 'icsd-89358', 'icsd-290620', 'icsd-188451', 'icsd-89360', 'icsd-89359']",Tetragonal,I4/mcm,140.0,4/mmm,10.0,3.0,139.29130396935400,5.408526222661620,-8.665868154,-3.650416110583330
mp-3626,SrZrO3,"['icsd-89355', 'icsd-188452']",Orthorhombic,Cmcm,63.0,mmm,20.0,3.0,279.02747839948400,5.39990308071661,-8.670266024,-3.6548139805833300
mp-4387,SrZrO3,"['icsd-650', 'icsd-159454', 'icsd-184465', 'icsd-173398', 'icsd-188454', 'icsd-89354']",Orthorhombic,Pnma,62.0,mmm,20.0,3.0,278.2199660312180,5.415575890210900,-8.6784611755,-3.663009132083330
mp-1020622,SrZrO3,['icsd-188450'],Tetragonal,P4/mbm,127.0,4/mmm,10.0,3.0,139.96387922066500,5.382536367967060,-8.658711245000000,-3.6432592015833300
mp-1068742,SrZrO3,['icsd-188449'],Tetragonal,P4mm,99.0,4mm,5.0,3.0,74.58215804793350,5.050542179423130,-8.63012045,-3.614668406583330
mp-3323,SrZrO3,"['icsd-187481', 'icsd-27046', 'icsd-89364', 'icsd-191829', 'icsd-188448', 'icsd-89365', 'icsd-290618', 'icsd-89366', 'icsd-89363', 'icsd-29153']",Cubic,Pm-3m,221.0,m-3m,5.0,3.0,73.96074740540560,5.092976318759590,-8.623552264,-3.6081002205833300
mp-1080575,SrZrO3,['icsd-188453'],Orthorhombic,Imma,74.0,mmm,10.0,3.0,139.44806583680600,5.402446176547390,-8.672668996,-3.657216952583330
mp-557203,SrZrO3,['icsd-41083'],Cubic,P2_13,198.0,23,40.0,3.0,592.0000195401840,5.090274630005100,-8.62373121625,-3.608279172833330
mp-613402,SrZrO3,['icsd-33666'],Cubic,Pm-3m,221.0,m-3m,5.0,3.0,85.49650328956370,4.405798138641200,-6.161220496,-1.1457684525833300
mp-558760,SrZrS3,['icsd-154103'],Orthorhombic,Pnma,62.0,mmm,20.0,3.0,461.5351916601780,3.9582074137901800,-6.6073160515,-2.0780073147083300
mp-5193,SrZrS3,"['icsd-154104', 'icsd-23287']",Orthorhombic,Pnma,62.0,mmm,20.0,3.0,474.6162826351480,3.8491136612747600,-6.608256288,-2.0789475512083300
mp-541570,SrZrSe3,['icsd-84723'],Orthorhombic,Pnma,62.0,mmm,20.0,3.0,530.3759627979630,5.206313945914520,-6.0233354895,-1.8783497862395800
mp-9890,TaAgO3,['icsd-40831'],Trigonal,R-3c,167.0,-3m,10.0,3.0,125.0421701330730,8.945674399821080,-8.316438579,-2.4103586255833300
mp-1187189,TaAgO3,,Cubic,Pm-3m,221.0,m-3m,5.0,3.0,63.96976476255000,8.743087804133680,-8.303033604,-2.3969536505833300
mp-561242,TaAgS3,['icsd-74442'],Orthorhombic,Cmc2_1,36.0,mm2,10.0,3.0,189.64022178739600,6.742514150089970,-6.379751501000000,-0.9598148542083340
mp-5821,TaAgS3,"['icsd-73804', 'icsd-84910']",Orthorhombic,Cmcm,63.0,mmm,10.0,3.0,186.09968231755800,6.870790228678840,-6.3799520650000000,-0.9600154182083340
mp-972222,TaBeO3,,Cubic,Pm-3m,221.0,m-3m,5.0,3.0,40.058489189736000,9.8640512476562,-8.196267866,-2.1088165402500000
mp-756050,TaCuO3,,Monoclinic,C2/m,12.0,2/m,20.0,3.0,281.3230122078080,6.905862719148170,-8.664869109,-2.50545902225
mp-3102,TaCuS3,"['icsd-187747', 'icsd-43272', 'icsd-62537']",Orthorhombic,Pnma,62.0,mmm,20.0,3.0,397.93832257772500,5.6865816906659100,-6.740789458500000,-1.0675226783750000
mp-1187220,TaFeO3,,Cubic,Pm-3m,221.0,m-3m,5.0,3.0,63.017091198476500,7.5044199147459000,-9.176723004,-2.14315000925
mp-1187260,TaInO3,,Cubic,Pm-3m,221.0,m-3m,5.0,3.0,67.27805888471050,8.484693137654340,-8.400880748,-2.510975249250000
mp-1247469,TaMoN3,,Triclinic,P-1,2.0,-1,20.0,3.0,263.54579189622400,8.037451945338050,-10.2192425,-0.6766599970000000
mp-8074,TaSnO3,"['icsd-247837', 'icsd-27118']",Cubic,Pm-3m,221.0,m-3m,5.0,3.0,67.54808347028870,8.546452732962310,-8.50414018,-2.3626570562500000
mp-756933,TaTlO3,,Cubic,Fd-3m,227.0,m-3m,20.0,3.0,303.75377172937400,9.475574378534990,-8.4983768975,-2.6862795154166700
mp-861873,TaTlO3,,Cubic,Pm-3m,221.0,m-3m,5.0,3.0,68.05963814461340,10.572497647822200,-8.393179314,-2.5810819319166700
mp-676262,TaTlO3,,Monoclinic,C2/c,15.0,2/m,40.0,3.0,605.216109424282,9.511450247152820,-8.50054416875,-2.688446786666670
mp-10795,TaTlS3,['icsd-412385'],Orthorhombic,Pnma,62.0,mmm,20.0,3.0,476.0707586574710,6.718270500255310,-6.416457265,-1.090503189541670
mp-12027,TaTlSe3,['icsd-415528'],Orthorhombic,Pnma,62.0,mmm,20.0,3.0,551.390418635224,7.495276937329650,-5.8580510765,-0.9164200345729170
mp-1246615,TaWN3,,Triclinic,P-1,2.0,-1,20.0,3.0,321.97469323705900,8.392219110180410,-10.5479522635,-0.5828737365000000
mp-4434,TbAlO3,"['icsd-98302', 'icsd-84422']",Orthorhombic,Pnma,62.0,mmm,20.0,3.0,203.66615099267200,7.628337563286280,-8.3851686665,-3.74116705375
mp-1187310,TbBeO3,,Cubic,Pm-3m,221.0,m-3m,5.0,3.0,45.99403544769510,7.796004750847250,-7.5446871800000000,-2.9019181602500000
mp-1217607,TbBO3,,Orthorhombic,Ama2,40.0,mm2,10.0,3.0,119.30788763395200,6.060902319096630,-8.699016827,-3.468252026083330
mp-863748,TbBS3,['icsd-710042'],Orthorhombic,Pna2_1,33.0,mm2,20.0,3.0,387.4069269674790,4.559437273518320,-6.263075194000000,-1.5184536997083300
mp-755605,TbCO3,,Monoclinic,P2_1/m,11.0,2/m,20.0,3.0,209.9506627673310,6.926367754212040,-8.5037398375,-2.7631202922500000
mp-19802,TbCoO3,"['icsd-190948', 'icsd-190946', 'icsd-190947', 'icsd-172046', 'icsd-23657']",Orthorhombic,Pnma,62.0,mmm,20.0,3.0,205.64415112513500,8.586979182753060,-7.9451875995,-2.6286375937500000
mp-756124,TbCrO3,['icsd-251101'],Orthorhombic,Pnma,62.0,mmm,20.0,3.0,220.4416567686990,7.801541691124650,-9.0416070835,-3.2161111427500000
mp-1208345,TbCrSe3,,Orthorhombic,Pnma,62.0,mmm,20.0,3.0,428.37124579971200,6.943433380239510,-6.405198821500000,-1.4501692209062500
mp-1187321,TbCuO3,,Cubic,Pm-3m,221.0,m-3m,5.0,3.0,54.13507164739000,8.296382371600240,-6.967511658000000,-2.252783877250000
mp-1187342,TbErO3,,Cubic,Pm-3m,221.0,m-3m,5.0,3.0,76.75262073438620,8.095420538997140,-8.003597216,-3.1951670072500000
mp-756048,TbErO3,,Orthorhombic,Pnma,62.0,mmm,20.0,3.0,283.4667004969910,8.76779870405418,-8.7410922665,-3.93266205775
mp-19853,TbFeO3,"['icsd-27279', 'icsd-189730', 'icsd-252448', 'icsd-98290', 'icsd-84412', 'icsd-22311']",Orthorhombic,Pnma,62.0,mmm,20.0,3.0,227.8446071426550,7.660263689728520,-8.434927227,-2.84603653825
mp-1101339,TbGaO3,,Trigonal,R-3c,167.0,-3m,10.0,3.0,113.79690708023500,8.073723894643510,-7.568390402,-3.0678847507500000
mp-756290,TbGaO3,,Orthorhombic,Pnma,62.0,mmm,20.0,3.0,228.39721544072300,8.045324073302230,-7.6274943385,-3.1269886872500000
mp-756224,TbGdO3,,Orthorhombic,Pnma,62.0,mmm,20.0,3.0,296.31536640116900,8.163254091638270,-10.555826073,-3.8457151782500000
mp-981132,TbGeO3,,Cubic,Pm-3m,221.0,m-3m,5.0,3.0,60.04338473889160,7.731512778487520,-7.222090068,-2.40259805025
mp-755740,TbHoO3,,Orthorhombic,Pnma,62.0,mmm,20.0,3.0,285.7770895270980,8.642790494132280,-8.725198068000000,-3.9138298472500000
mp-769263,TbInO3,,Orthorhombic,Pnma,62.0,mmm,20.0,3.0,269.41286852002700,7.932277564294920,-7.380217258,-2.93499406525
mp-754145,TbLuO3,,Orthorhombic,Pnma,62.0,mmm,20.0,3.0,273.160901583886,9.286016758084520,-8.787407117000000,-3.9883305662500000
mp-1187347,TbMgO3,,Cubic,Pm-3m,221.0,m-3m,5.0,3.0,57.35423346911670,6.694606786001650,-6.979735644,-2.7647931872500000
mp-1232232,TbMgS3,,Trigonal,R-3,148.0,-3,30.0,3.0,704.8662119331290,3.949657696891260,-5.360508802,-1.631709651875
mp-1232160,TbMgS3,,Monoclinic,C2/m,12.0,2/m,10.0,3.0,262.68976312505600,3.5326592430058800,-5.283688209,-1.5548890588750000
mp-1232315,TbMgSe3,,Monoclinic,C2/m,12.0,2/m,20.0,3.0,552.9745037860040,5.046233731803070,-4.777536038,-1.4330599214062500
mp-1237963,TbMgSe3,,Monoclinic,C2/m,12.0,2/m,10.0,3.0,289.8299134217000,4.8139244167180400,-4.738442848,-1.3939667314062500
mp-1232347,TbMgSe3,,Trigonal,R-3,148.0,-3,30.0,3.0,802.3379108748620,5.216826768392380,-4.847674414333330,-1.5031982977395800
mp-22055,TbMnO3,"['icsd-252442', 'icsd-157394', 'icsd-15720', 'icsd-92084', 'icsd-92078']",Orthorhombic,Pnma,62.0,mmm,20.0,3.0,224.7758055110440,7.738046495726130,-8.7593693125,-3.032079807336210
mp-1188379,TbMnO3,"['icsd-247684', 'icsd-180803', 'icsd-247683']",Orthorhombic,Pnma,62.0,mmm,20.0,3.0,270.82295315671600,6.422371567421260,-8.445132788000000,-2.7178432828362100
mp-755865,TbNiO3,,Orthorhombic,Pnma,62.0,mmm,20.0,3.0,211.05097957634100,8.359446103714430,-7.545764436000000,-2.494850653250000
mp-1187352,TbNiO3,,Cubic,Pm-3m,221.0,m-3m,5.0,3.0,52.25900745238170,8.440024863236030,-7.347095932000000,-2.2961821492500000
mp-770347,TbNiO3,,Trigonal,R-3c,167.0,-3m,10.0,3.0,108.19253637657700,8.15337798701662,-7.504032711000000,-2.4531189282500000
mp-1187359,TbOsO3,,Cubic,Pm-3m,221.0,m-3m,5.0,3.0,62.269216857666800,10.59093109716340,-8.02200867,-1.88164873725
mp-5692,TbRhO3,"['icsd-172358', 'icsd-172352']",Orthorhombic,Pnma,62.0,mmm,20.0,3.0,229.55338451111100,8.964942818652480,-7.9449810865,-2.5772330657500000
mp-31119,TbScO3,['icsd-99544'],Orthorhombic,Pnma,62.0,mmm,20.0,3.0,247.2443722811710,6.766676755732840,-9.119895555,-3.958515287250000
mp-1188262,TbScS3,,Orthorhombic,Pnma,62.0,mmm,20.0,3.0,427.4692108399350,4.662683003823450,-6.9667621835,-2.2915252223750000
mp-1187364,TbSiO3,,Cubic,Pm-3m,221.0,m-3m,5.0,3.0,51.82427694555710,7.530094610668920,-7.797072692,-2.8171226392500000
mp-756118,TbSmO3,,Orthorhombic,Pnma,62.0,mmm,20.0,3.0,301.4292626823470,7.872935591575270,-8.679432099,-3.8408284252500000
mp-768409,TbTiO3,,Orthorhombic,Pnma,62.0,mmm,20.0,3.0,236.76811009382000,7.147747421016300,-9.103564156500000,-3.6295793064166700
mp-756762,TbTmO3,,Orthorhombic,Pnma,62.0,mmm,20.0,3.0,279.38814552182100,8.935618836641320,-8.7492180945,-3.959164563083330
mp-1187389,TbVO3,,Cubic,Pm-3m,221.0,m-3m,5.0,3.0,56.75255092161910,7.544947010877840,-8.60458872,-2.892921059250000
mp-554811,TbVO3,"['icsd-155481', 'icsd-185835']",Orthorhombic,Pnma,62.0,mmm,20.0,3.0,226.45903361633900,7.563310371821150,-9.004759297000000,-3.2930916362500000
mp-555390,TcO3F,['icsd-249509'],Monoclinic,P2_1/c,14,2/m,20,3,300.930282408025,3.64181767653958,-7.349794371,-1.92735756175
mp-687205,TcPbO3,['icsd-109078'],Cubic,Fd-3m,227.0,m-3m,20.0,3.0,286.1710768914210,8.197885205224000,-7.437499719,-1.65482928925
mp-1187400,TcSnO3,,Cubic,Pm-3m,221.0,m-3m,5.0,3.0,63.24387741514350,6.950211234899950,-7.341659590000000,-1.4996042032500000
mp-1187421,ThBeO3,,Cubic,Pm-3m,221.0,m-3m,5.0,3.0,48.99965010566740,9.79550321371273,-8.658321612,-3.4596541622500000
mp-1187416,ThBO3,,Cubic,Pm-3m,221.0,m-3m,5.0,3.0,49.922780730192400,9.674205454494650,-8.176784634,-2.3901214030833300
mp-1189441,ThCrS3,['icsd-626639'],Orthorhombic,Pnma,62.0,mmm,20.0,3.0,417.17411707912600,6.053926632468870,-7.598655058,-1.7034039938750000
mp-1188731,ThCrSe3,['icsd-626732'],Orthorhombic,Pnma,62.0,mmm,20.0,3.0,473.9553993769640,7.3002507338218100,-6.9812120895,-1.470284058906250
mp-1187487,ThCuO3,,Cubic,Pm-3m,221.0,m-3m,5.0,3.0,57.88331164717670,9.856584723388870,-7.738799444,-2.4681732332500000
mp-11778,ThMnSe3,['icsd-99582'],Orthorhombic,Cmcm,63.0,mmm,10.0,3.0,242.44356424118900,7.175967160456620,-6.905422854000000,-1.4927012589924600
mp-1187460,ThMoO3,,Cubic,Pm-3m,221.0,m-3m,5.0,3.0,69.39050638341450,8.997243288505280,-8.899091794,-2.279176895250000
mp-1187442,ThPdO3,,Cubic,Pm-3m,221.0,m-3m,5.0,3.0,66.22347133013450,9.690306236938600,-7.490239,-2.003477761250000
mp-1187556,ThReO3,,Cubic,Pm-3m,221.0,m-3m,5.0,3.0,64.07673464732870,12.082624872040300,-9.032555872,-2.0928655582500000
mp-1187425,ThSiO3,,Cubic,Pm-3m,221.0,m-3m,5.0,3.0,58.593404576833100,8.7321810952055,-8.034501764,-2.4986532812500000
mp-1079374,ThTaN3,['icsd-247344'],Orthorhombic,Cmcm,63.0,mmm,10.0,3.0,131.28697753075400,11.509980946617000,-10.402600303,-1.5463761720000000
mp-1105961,ThTaN3,['icsd-247343'],Orthorhombic,Pnma,62.0,mmm,20.0,3.0,262.8588260070860,11.497507105789100,-10.5351093155,-1.678885184500000
mp-1187536,ThTaN3,,Orthorhombic,Imma,74.0,mmm,10.0,3.0,132.37428087202500,11.415439615334400,-10.512073558,-1.655849427000000
mp-10732,ThTaN3,"['icsd-247345', 'icsd-77661']",Cubic,Pm-3m,221.0,m-3m,5.0,3.0,67.1430690742335,11.252915831470500,-10.303800818,-1.4475766870000000
mp-1187448,ThWO3,,Cubic,Pm-3m,221.0,m-3m,5.0,3.0,70.70192979791610,10.894817920811600,-9.136233774,-2.0938228512500000
mp-1248327,TiAlO3,,Orthorhombic,Cmcm,63.0,mmm,30.0,3.0,314.38311485811200,3.893182534470990,-8.424581771666670,-3.128354975583330
mp-1341716,TiAlO3,,Hexagonal,P6_3cm,185.0,6mm,30.0,3.0,314.092720217299,3.8967819790647200,-8.400689786666670,-3.104462990583330
mp-1475723,TiAlO3,,Cubic,Pm-3m,221.0,m-3m,5.0,3.0,57.548401321217,3.5446998346849,-7.6660689260000000,-2.369842129916670
mp-774520,TiAlO3,,Trigonal,R-3,148.0,-3,10.0,3.0,97.84417929423470,4.169728033310170,-8.595938124,-3.299711327916670
mp-1405134,TiAlO3,,Hexagonal,P6_3/mmc,194.0,6/mmm,10.0,3.0,105.63784455287300,3.862097139772630,-8.404063179000000,-3.1078363829166700
mp-1187465,TiBeO3,,Cubic,Pm-3m,221.0,m-3m,5.0,3.0,38.92037628226890,4.474596770357310,-7.608062538,-2.313068334916670
mp-9716,TiBO3,['icsd-402039'],Trigonal,R-3c,167.0,-3m,10.0,3.0,95.70124589670450,3.701937125617600,-8.884257016,-3.0012670317500000
mp-20940,TiCdO3,['icsd-51698'],Orthorhombic,Pmc2_1,26.0,mm2,20.0,3.0,229.44471704617400,6.029352450479730,-7.3717698475,-2.6400802654166700
mp-22345,TiCdO3,['icsd-33667'],Cubic,Pm-3m,221.0,m-3m,5.0,3.0,68.68324431916600,5.035445983533510,-5.403051798,-0.6713622159166670
mp-1016846,TiCdO3,,Cubic,Pm-3m,221.0,m-3m,5.0,3.0,58.726787929889900,5.889148358597160,-7.213101972,-2.4814123899166700
mp-14550,TiCdO3,"['icsd-62150', 'icsd-262710']",Orthorhombic,Pnma,62.0,mmm,20.0,3.0,227.38653800449300,6.083926863535970,-7.3687953860000000,-2.637105803916670
mp-1101047,TiCdO3,,Triclinic,P1,1.0,1,10.0,3.0,277.93610284000800,2.4887070316452000,-6.296802835000000,-1.5651132529166700
mp-5052,TiCdO3,"['icsd-62151', 'icsd-16686', 'icsd-262711']",Orthorhombic,Pna2_1,33.0,mm2,20.0,3.0,220.54685782643000,6.2726038385036200,-7.372593441000000,-2.6409038589166700
mp-13641,TiCdO3,"['icsd-15989', 'icsd-262708', 'icsd-5310']",Trigonal,R-3,148.0,-3,10.0,3.0,119.04414777961400,5.810462306526290,-7.411338015,-2.6796484329166700
mp-1179551,TiCdO3,,Triclinic,P-1,2.0,-1,10.0,3.0,195.3942757687810,3.5400296695718600,-7.245404959,-2.5137153769166700
mp-1179263,TiCdO3,,Orthorhombic,Pmc2_1,26.0,mm2,20.0,3.0,256.34652840922100,5.396613231147700,-7.1912718715,-2.459582289416670
mp-1179381,TiCoO3,,Triclinic,P-1,2.0,-1,10.0,3.0,168.77986080467400,3.0459650946383500,-8.470397449,-2.501622259916670
mp-19424,TiCoO3,"['icsd-38158', 'icsd-16548', 'icsd-48107']",Trigonal,R-3,148.0,-3,10.0,3.0,102.011734456397,5.039592429522880,-8.5965849335,-2.627809744416670
mp-756083,TiCrO3,,Triclinic,P1,1.0,1,30.0,3.0,336.02093158065700,4.38418161511454,-9.248453735333330,-2.770732611250000
mp-755606,TiCrO3,,Orthorhombic,Pnma,62.0,mmm,20.0,3.0,210.1702097484960,4.672964172840300,-9.253288666,-2.7755675419166700
mp-1187469,TiCuO3,,Cubic,Pm-3m,221.0,m-3m,5.0,3.0,57.101005279421800,4.635794483096120,-7.303850848000000,-1.9368978839166700
mp-1147748,TiCuO3,,Tetragonal,P4/mmm,123.0,4/mmm,5.0,3.0,60.86474174556890,4.349127551713590,-7.5964208500000000,-2.229467885916670
mp-19270,TiFeO3,"['icsd-79278', 'icsd-246515']",Trigonal,R3c,161.0,3m,10.0,3.0,102.29482436671400,4.925385335207110,-8.939818291,-2.6987024189166700
mp-1277107,TiFeO3,,Triclinic,P-1,2.0,-1,20.0,3.0,219.16653632663000,4.597795231408050,-8.971592041,-2.730476168916670
mp-19417,TiFeO3,"['icsd-29209', 'icsd-153673', 'icsd-30673', 'icsd-9805', 'icsd-43466', 'icsd-30666', 'icsd-153491', 'icsd-24790', 'icsd-247547', 'icsd-153493', 'icsd-153492', 'icsd-30669', 'icsd-30672', 'icsd-30668', 'icsd-153674', 'icsd-30671', 'icsd-30667', 'icsd-187688', 'icsd-30665', 'icsd-153494', 'icsd-30670', 'icsd-67046', 'icsd-30664']",Trigonal,R-3,148.0,-3,10.0,3.0,102.67577859097700,4.907110856305440,-8.959550826000000,-2.718434953916670
mp-19074,TiFeO3,['icsd-246516'],Orthorhombic,Cmcm,63.0,mmm,10.0,3.0,101.6130315680440,4.958433185471930,-8.848473615,-2.6073577429166700
mp-1179354,TiFeO3,,Triclinic,P-1,2.0,-1,10.0,3.0,161.9896577618400,3.110330836948590,-8.896343262,-2.655227389916670
mp-20073,TiFeO3,['icsd-246514'],Orthorhombic,Pnma,62.0,mmm,20.0,3.0,208.77156595728900,4.826724611592710,-8.899765688000000,-2.658649815916670
mp-694948,TiFeO3,,Triclinic,P1,1.0,1,80.0,3.0,868.1009408044890,4.643159836564420,-8.690924784750000,-2.4498089126666700
mp-780260,TiGeO3,,Trigonal,R-3,148.0,-3,10.0,3.0,142.2873660627810,3.9330191466442300,-8.155536432,-2.6838192309166700
mp-1105715,TiGeS3,['icsd-263128'],Orthorhombic,Pnma,62.0,mmm,20.0,3.0,434.35899785867600,3.313776287212380,-6.167187987,-1.181614092541670
mp-556925,TiMnO3,"['icsd-158732', 'icsd-184651']",Orthorhombic,Pnma,62.0,mmm,20.0,3.0,212.50152766807800,4.713654201746590,-9.274892319,-2.895377630502870
mp-743867,TiMnO3,,Triclinic,P-1,2.0,-1,10.0,3.0,113.56933258435700,4.409899644458130,-9.134469726,-2.7549550375028700
mp-697089,TiMnO3,,Triclinic,P-1,2.0,-1,10.0,3.0,98.9266567412891,5.06263302412878,-8.471604507000000,-2.092089818502870
mp-2234285,TiMnO3,,Monoclinic,C2/m,12.0,2/m,10.0,3.0,113.83843812847200,4.399474971888600,-9.135411479,-2.7558967905028700
mp-19376,TiMnO3,"['icsd-184650', 'icsd-65359', 'icsd-190911']",Trigonal,R3c,161.0,3m,10.0,3.0,106.62481101239500,4.697118378262630,-9.2985630085,-2.9190483200028700
mp-19082,TiMnO3,"['icsd-44407', 'icsd-184649', 'icsd-247553', 'icsd-171579', 'icsd-60006']",Trigonal,R-3,148.0,-3,10.0,3.0,107.83263051258700,4.644506556173100,-9.334882121,-2.955367432502870
mp-1246065,TiMoN3,,Triclinic,P-1,2.0,-1,20.0,3.0,272.76706553673900,4.525079427397710,-9.618662941,-0.8685375606666670
mp-1216784,TiMoS3,,Monoclinic,P2_1/m,11.0,2/m,10.0,3.0,170.29664917043500,4.680452598492150,-7.598895304,-1.3687969585416700
mp-675030,TiNiO3,,Triclinic,P1,1.0,1,40.0,3.0,414.1901770745120,4.957154613212030,-8.2803009785,-2.5771620124166700
mp-531689,TiNiO3,,Triclinic,P1,1.0,1,60.0,3.0,624.0954126779500,4.934833773785960,-8.284679899833330,-2.58154093375
mp-690546,TiNiO3,,Triclinic,P1,1.0,1,30.0,3.0,300.53728897985800,5.123835266835120,-8.282212310666670,-2.5790733445833300
mp-850194,TiNiO3,,Trigonal,R3c,161.0,3m,10.0,3.0,100.00880325404600,5.132560035281100,-8.286667864,-2.583528897916670
mp-18732,TiNiO3,"['icsd-33856', 'icsd-33854', 'icsd-171584', 'icsd-33855', 'icsd-15988', 'icsd-38157']",Trigonal,R-3,148.0,-3,10.0,3.0,100.19293107218300,5.123127762259020,-8.300620009,-2.597481042916670
mp-698587,TiNiO3,,Triclinic,P1,1.0,1,50.0,3.0,516.7503733668700,4.966626181744280,-8.280607195,-2.577468228916670
mp-20459,TiPbO3,"['icsd-162048', 'icsd-61168', 'icsd-51838', 'icsd-186727', 'icsd-61169', 'icsd-1610', 'icsd-1612', 'icsd-162046', 'icsd-162044', 'icsd-90693', 'icsd-16621', 'icsd-55059', 'icsd-60188', 'icsd-55061', 'icsd-93553', 'icsd-51840', 'icsd-1611', 'icsd-55060', 'icsd-31152', 'icsd-55054', 'icsd-55056', 'icsd-51841', 'icsd-162045', 'icsd-55058', 'icsd-55057', 'icsd-165498', 'icsd-51839', 'icsd-236933', 'icsd-55055', 'icsd-161709']",Tetragonal,P4mm,99.0,4mm,5.0,3.0,64.50656431866490,7.801556471692710,-8.020994206000000,-2.7313531619166700