nsites,nelements,formula_pretty,volume,density,crystal_system,symbol,number,point_group,symprec,version,material_id,energy_per_atom,formation_energy_per_atom,e_total,e_electronic,icsd
20.0,3.0,LaGaO3,244.776697806021,6.9637120671375285,Orthorhombic,Pnma,62.0,mmm,0.1,1.16.2,mp-5837,-7.659527258,-3.09869340575,,,"['icsd-153307', 'icsd-88259', 'icsd-160235', 'icsd-98168', 'icsd-88146', 'icsd-50388', 'icsd-94299', 'icsd-160233', 'icsd-73761', 'icsd-160234', 'icsd-51285', 'icsd-73759', 'icsd-91786', 'icsd-41280', 'icsd-88349', 'icsd-73760', 'icsd-98410', 'icsd-161782']"
20.0,3.0,LaGaO3,243.58010127039393,6.997921568205891,Orthorhombic,Pnma,62.0,mmm,0.1,1.16.2,mp-1180739,-7.6545308995,-3.09369704725,,,
10.0,3.0,LaGaO3,121.69108631106907,7.003612573186545,Trigonal,R3c,161.0,3m,0.1,1.16.2,mp-1078871,-7.6534813029999995,-3.0926474507499995,,,"['icsd-51037', 'icsd-73764', 'icsd-51038', 'icsd-73762', 'icsd-73763', 'icsd-51036', 'icsd-51039']"
5.0,3.0,LaGaO3,97.33009647935539,4.378282016363295,Cubic,Pm-3m,221.0,m-3m,0.1,1.16.2,mp-9831,-6.24826148,-1.6874276277500002,,,['icsd-76047']
5.0,3.0,LaGaO3,59.93511816444752,7.10999868052724,Cubic,Pm-3m,221.0,m-3m,0.1,1.16.2,mp-1097026,-7.5957525939999995,-3.03491874175,,,['icsd-79662']
60.0,3.0,LaGaS3,1399.3919751039664,4.34049606706342,Monoclinic,P2_1/c,14.0,2/m,0.1,1.16.2,mp-4816,-5.824371832666667,-1.7496812870416671,,,['icsd-27192']
60.0,3.0,LaGaS3,1399.9496136472676,4.338767127764142,Orthorhombic,Pna2_1,33.0,mm2,0.1,1.16.2,mp-1201646,-5.819636046166667,-1.7449455005416672,,,['icsd-420964']
5.0,3.0,CeGaO3,85.9685597555511,4.9802944778903475,Cubic,Pm-3m,221.0,m-3m,0.1,1.16.2,mp-22540,-7.001328244,-2.24107798175,,,['icsd-76048']
5.0,3.0,CeGaO3,59.063110754509616,7.2490042930911365,Cubic,Pm-3m,221.0,m-3m,0.1,1.16.2,mp-33365,-7.652547534,-2.8922972717500004,,,['icsd-55629']
20.0,3.0,CeGaO3,241.53359368034126,7.090504254897029,Orthorhombic,Pnma,62.0,mmm,0.1,1.16.2,mp-1019598,-7.757944517,-2.9976942547500003,,,['icsd-183679']
20.0,3.0,PrGaO3,242.1773823202712,7.093367763086663,Orthorhombic,Pnma,62.0,mmm,0.1,1.16.2,mp-4535,-7.5675018089999995,-3.0376882267499994,,,"['icsd-153163', 'icsd-73766', 'icsd-73765']"
5.0,3.0,PrGaO3,97.53781528000668,4.403044172580138,Cubic,Pm-3m,221.0,m-3m,0.1,1.16.2,mp-9833,-6.122358972,-1.59254538975,,,['icsd-76049']
20.0,3.0,NdGaO3,239.71243428239342,7.258699431487926,Orthorhombic,Pnma,62.0,mmm,0.1,1.16.2,mp-3196,-7.581744754000001,-3.05448283625,22.63959384,4.830983846666666,"['icsd-160257', 'icsd-98412', 'icsd-246691', 'icsd-160258', 'icsd-90202', 'icsd-79633', 'icsd-54708', 'icsd-160262', 'icsd-83348', 'icsd-160259', 'icsd-160263', 'icsd-90203', 'icsd-160260', 'icsd-160261', 'icsd-160264', 'icsd-90606', 'icsd-196514']"
5.0,3.0,NdGaO3,95.05693542411397,4.576206098699859,Cubic,Pm-3m,221.0,m-3m,0.1,1.16.2,mp-9834,-6.149087994,-1.6218260762499994,,,['icsd-76050']
5.0,3.0,SmGaO3,57.60803022854421,7.727382864072236,Cubic,Pm-3m,221.0,m-3m,0.1,1.16.2,mp-978504,-7.431014211999999,-2.9136645537499994,,,
10.0,3.0,EuGaO3,135.502516149272,6.609808039143785,Hexagonal,P6_3/mmc,194.0,6/mmm,0.1,1.16.2,mp-1206706,-8.324854689,-2.69982189775,,,
20.0,3.0,EuGaO3,236.15862870516224,7.5851187439427274,Orthorhombic,Pnma,62.0,mmm,0.1,1.16.2,mp-1212729,-8.315547044999999,-2.69051425375,,,
20.0,3.0,GdGaO3,232.60547911276728,7.85192888029128,Orthorhombic,Pnma,62.0,mmm,0.1,1.16.2,mp-18656,-9.467354193,-3.07849731375,,,['icsd-492']
10.0,3.0,TbGaO3,113.79690708023502,8.073723894643507,Trigonal,R-3c,167.0,-3m,0.1,1.16.2,mp-1101339,-7.568390402,-3.0678847507499993,,,
20.0,3.0,TbGaO3,228.39721544072253,8.045324073302229,Orthorhombic,Pnma,62.0,mmm,0.1,1.16.2,mp-756290,-7.6274943385,-3.1269886872499995,,,
20.0,3.0,DyGaO3,226.90885588842502,8.202734054916514,Orthorhombic,Pnma,62.0,mmm,0.1,1.16.2,mp-755612,-7.6296917765000005,-3.1347019772500007,,,['icsd-429061']
30.0,3.0,DyGaO3,380.29105744080005,7.3415071028111365,Hexagonal,P6_3cm,185.0,6mm,0.1,1.16.2,mp-769015,-7.653000484333334,-3.1580106850833336,,,
20.0,3.0,DyGaSe3,506.78423662336127,6.14828798108952,Orthorhombic,Pnma,62.0,mmm,0.1,1.16.2,mp-1225852,-4.913268002000001,-1.2887445429062503,,,
20.0,3.0,HoGaO3,225.6080378581869,8.321581015458298,Orthorhombic,Pnma,62.0,mmm,0.1,1.16.2,mp-755416,-7.631604461499999,-3.1414902562499996,,,['icsd-420711']
30.0,3.0,HoGaO3,364.40174897721613,7.728073081612191,Hexagonal,P6_3cm,185.0,6mm,0.1,1.16.2,mp-769045,-7.6622993993333335,-3.1721851940833328,,,
5.0,3.0,ErGaO3,55.66853613625379,8.500686171255348,Cubic,Pm-3m,221.0,m-3m,0.1,1.16.2,mp-1184164,-7.303556288,-2.81638009475,,,
30.0,3.0,ErGaO3,360.1146356972316,7.884501906865194,Hexagonal,P6_3cm,185.0,6mm,0.1,1.16.2,mp-1213088,-7.672729524666667,-3.1855533314166666,,,
20.0,3.0,ErGaO3,223.6325630585219,8.464254915929127,Orthorhombic,Pnma,62.0,mmm,0.1,1.16.2,mp-1213082,-7.63556537,-3.1483891767500003,,,
20.0,3.0,TmGaO3,221.87658881589454,8.581392196401769,Orthorhombic,Pnma,62.0,mmm,0.1,1.16.2,mp-754578,-7.6298202355,-3.161020719583333,21.569513459999996,4.482815826666666,
10.0,3.0,TmGaO3,123.77303604118883,7.691538030930057,Hexagonal,P6_3/mmc,194.0,6/mmm,0.1,1.16.2,mp-1101269,-7.652406986,-3.183607470083333,,,
30.0,3.0,TmGaO3,356.1908917194655,8.01821469368966,Hexagonal,P6_3cm,185.0,6mm,0.1,1.16.2,mp-768469,-7.674284366666667,-3.2054848507499996,,,
5.0,3.0,YbGaO3,56.52080171735539,8.542347542519732,Cubic,Pm-3m,221.0,m-3m,0.1,1.16.2,mp-1187561,-6.351725282,-2.4701711947500002,,,
20.0,3.0,YbGaO3,223.88093980013707,8.626376717598543,Orthorhombic,Pnma,62.0,mmm,0.1,1.16.2,mp-1207537,-6.4331603705,-2.551606283249999,,,
5.0,3.0,LuGaO3,55.12542125628244,8.816625421750299,Cubic,Pm-3m,221.0,m-3m,0.1,1.16.2,mp-1185488,-7.231202088000001,-2.7533795527500002,,,
10.0,3.0,LuGaO3,121.21093888475164,8.019411365090507,Hexagonal,P6_3/mmc,194.0,6/mmm,0.1,1.16.2,mp-755342,-7.67745922,-3.1996366847499997,27.331939699835,4.114605886985521,
20.0,3.0,LuGaO3,218.7536126207889,8.887079570664806,Orthorhombic,Pnma,62.0,mmm,0.1,1.16.2,mp-755792,-7.6441232365000005,-3.1663007012500004,22.314845279999997,4.426937203333334,
30.0,3.0,LuGaO3,349.22964111405213,8.350153593190138,Hexagonal,P6_3cm,185.0,6mm,0.1,1.16.2,mp-768505,-7.698665589333333,-3.220843054083333,,,
5.0,3.0,TlGaO3,59.724888506857425,8.955514512450666,Cubic,Pm-3m,221.0,m-3m,0.1,1.16.2,mp-1187481,-5.303302328,-1.2571412674166673,,,
20.0,3.0,TlGaO3,231.7348619025549,9.232397773668987,Orthorhombic,Pnma,62.0,mmm,0.1,1.16.2,mp-756909,-5.663815099,-1.617654038416667,,,
20.0,3.0,GaBiO3,278.0863765695177,7.803341920061429,Orthorhombic,Pcca,54.0,mmm,0.1,1.16.2,mp-558285,-6.3158994905,-1.97416923325,,,['icsd-171709']
10.0,3.0,GaBiO3,125.04979164817883,8.67655615847845,Trigonal,R3c,161.0,3m,0.1,1.16.2,mp-755568,-6.2667925879999995,-1.9250623307499999,37.0824382966537,6.111067956666665,
5.0,3.0,GaBiO3,59.0686617673901,9.184240063827275,Cubic,Pm-3m,221.0,m-3m,0.1,1.16.2,mp-22979,-6.090197468,-1.7484672107500003,,,"['icsd-157550', 'icsd-158757']"
5.0,3.0,AcGaO3,61.455078293307366,9.31449500321555,Cubic,Pm-3m,221.0,m-3m,0.1,1.16.2,mp-1183053,-7.461883426,-3.06401599325,,,
5.0,3.0,PuGaO3,58.10927082340733,10.336598193475862,Cubic,Pm-3m,221.0,m-3m,0.1,1.16.2,mp-1186662,-9.105156529999999,-2.67795643275,,,
5.0,2.0,Ge2O3,52.07457490233922,6.163199650194571,Cubic,Pm-3m,221.0,m-3m,0.1,1.16.2,mp-982048,-6.304884716,-1.48766034725,,,
5.0,3.0,RbGeO3,61.565349989323494,5.559085831884512,Cubic,Pm-3m,221.0,m-3m,0.1,1.16.2,mp-1186885,-5.576472036,-1.48774642375,,,
20.0,3.0,RbGeCl3,632.4557199965224,2.7774747817671956,Orthorhombic,Pna2_1,33.0,mm2,0.1,1.16.2,mp-1120729,-3.913733276,-1.6838988944999997,,,
10.0,3.0,RbGeCl3,311.8706330814683,2.8162796149130855,Monoclinic,P2_1/m,11.0,2/m,0.1,1.16.2,mp-27369,-3.921218277,-1.6913838954999996,8.453291053333333,2.797889456666667,['icsd-12149']
10.0,3.0,RbGeBr3,359.3295999849223,3.6768210545121667,Monoclinic,P2_1/m,11.0,2/m,0.1,1.16.2,mp-1120721,-3.5127194429999995,-1.4601900594999997,,,
20.0,3.0,RbGeBr3,712.8200349732962,3.7069402483433054,Orthorhombic,Pna2_1,33.0,mm2,0.1,1.16.2,mp-28558,-3.5197074739999996,-1.4671780904999998,10.449001229999999,3.9779209766666668,['icsd-65244']
5.0,3.0,RbGeI3,206.9055618468492,4.3243577462647504,Cubic,Pm-3m,221.0,m-3m,0.1,1.16.2,mp-571458,-3.0570703480000003,-1.0523381525000002,,,['icsd-40216']
20.0,3.0,RbGeI3,816.7220152541115,4.382072002010617,Orthorhombic,P2_12_12_1,19.0,222,0.1,1.16.2,mp-567855,-3.0653950510000003,-1.0606628555,,,['icsd-85041']
15.0,3.0,SrGeO3,248.667874130049,4.1720814751358395,Hexagonal,P-62m,189.0,-6m2,0.1,1.16.2,mp-555731,-6.862306664,-2.6317891755833336,11.598213366679985,3.141507893333333,['icsd-28603']
30.0,3.0,SrGeO3,480.6018637681073,4.31734751498995,Monoclinic,C2/c,15.0,2/m,0.1,1.16.2,mp-17464,-6.974983127333334,-2.7444656389166675,,,['icsd-59303']
5.0,3.0,SrGeO3,57.36998463477624,6.027906042529566,Cubic,Pm-3m,221.0,m-3m,0.1,1.16.2,mp-1016999,-6.824938958,-2.594421469583333,,,['icsd-195084']
60.0,3.0,SrGeO3,901.2435295489332,4.604582877343405,Triclinic,P-1,2.0,-1,0.1,1.16.2,mp-554869,-6.9730983885,-2.7425809000833334,,,['icsd-200166']
5.0,3.0,GePdO3,53.483516561437256,7.049630161449204,Cubic,Pm-3m,221.0,m-3m,0.1,1.16.2,mp-1184557,-5.8652823220000005,-0.9366871622499999,,,
10.0,3.0,GePdS3,228.1245165560433,4.007212268784747,Monoclinic,C2/m,12.0,2/m,0.1,1.16.2,mp-541785,-5.094248789,-0.6517969358750001,,,['icsd-408505']
80.0,3.0,AgGeO3,1210.6981013108827,5.014545624641301,Orthorhombic,Pbam,55.0,mmm,0.1,1.16.2,mp-891880,-5.799611460375,-1.3404814619583334,,,
10.0,3.0,AgGeO3,152.23687320929267,4.984913262721486,Orthorhombic,Pmma,51.0,mmm,0.1,1.16.2,mp-891854,-5.797279927,-1.3381499285833336,,,
20.0,3.0,AgGeO3,292.255893683804,5.193309183747747,Orthorhombic,P2_12_12,18.0,222,0.1,1.16.2,mp-779706,-5.7934255285,-1.3342955300833332,,,
10.0,3.0,AgGeO3,113.78514352920584,6.66947885108977,Orthorhombic,Pmma,51.0,mmm,0.1,1.16.2,mp-759939,-5.771882732,-1.3127527335833336,,,
10.0,3.0,AgGeO3,152.22963156576708,4.985150397663503,Orthorhombic,Pmc2_1,26.0,mm2,0.1,1.16.2,mp-779664,-5.797829883,-1.3386998845833333,,,
20.0,3.0,CdGeO3,261.90346298776586,5.91038081933195,Monoclinic,C2/c,15.0,2/m,0.1,1.16.2,mp-2951,-5.9424255485,-1.8652287987500002,,,"['icsd-9375', 'icsd-77134', 'icsd-20225']"
10.0,3.0,CdGeO3,154.93044510132876,4.995626273283812,Orthorhombic,Cmc2_1,36.0,mm2,0.1,1.16.2,mp-685935,-5.846945601,-1.7697488512500001,174.79332018476995,3.6881139355988046,
20.0,3.0,CdGeO3,215.97939401466786,7.1671152297722465,Orthorhombic,Pnma,62.0,mmm,0.1,1.16.2,mp-13003,-5.8255737844999995,-1.7483770347499998,,,['icsd-158753']
10.0,3.0,CdGeO3,118.83630558937064,6.512947354272025,Trigonal,R-3,148.0,-3,0.1,1.16.2,mp-8275,-5.921550844,-1.84435409425,,,['icsd-30971']
10.0,3.0,CdGeO3,137.79220244027488,5.616969526379604,Monoclinic,Cc,9.0,m,0.1,1.16.2,mp-1227040,-5.230886904,-1.1536901542499998,,,
5.0,3.0,CdGeO3,54.11695667257225,7.150943527391868,Cubic,Pm-3m,221.0,m-3m,0.1,1.16.2,mp-1016903,-5.64122451,-1.56402776025,,,
80.0,3.0,CdGeO3,996.4899421647862,6.213606936349901,Tetragonal,I4_1/a,88.0,4/m,0.1,1.16.2,mp-7588,-5.926822038875001,-1.8496252891250002,,,"['icsd-23531', 'icsd-17016']"
10.0,3.0,InGeCl3,343.0649497460598,2.844327916870299,Trigonal,R3c,161.0,3m,0.1,1.16.2,mp-998569,-3.7722156890000003,-1.188151376,11.764455813337179,3.5620636966666677,
60.0,3.0,SnGeO3,970.7966069728828,4.9128359176248155,Monoclinic,P2/c,13.0,2/m,0.1,1.16.2,mp-769144,-6.60144247,-1.906909301250001,,,
10.0,3.0,SnGeO3,157.20695864987835,5.056354248358174,Trigonal,R-3,148.0,-3,0.1,1.16.2,mp-1101394,-6.498422442000001,-1.8038892732500003,,,
5.0,3.0,SnGeO3,57.701963183861174,6.887929191489851,Cubic,Pm-3m,221.0,m-3m,0.1,1.16.2,mp-1187065,-6.328173208,-1.6336400392499997,,,
20.0,3.0,SnGeS3,531.9924307893193,3.5901240564423698,Monoclinic,P2_1/c,14.0,2/m,0.1,1.16.2,mp-5045,-4.8938272365,-0.6854373743750003,14.504851919999995,6.144584856666665,"['icsd-637796', 'icsd-411241', 'icsd-41922']"
5.0,3.0,CsGeO3,67.14881807585644,6.269941171455406,Cubic,Pm-3m,221.0,m-3m,0.1,1.16.2,mp-984051,-5.3570846340000005,-1.2853853618362074,,,
5.0,3.0,CsGeCl3,162.92527551742106,3.17893909205653,Trigonal,R3m,160.0,3m,0.1,1.16.2,mp-22988,-3.92553261,-1.7127245685862065,13.315891726699382,3.642229833333333,"['icsd-62557', 'icsd-75215', 'icsd-23121']"
5.0,3.0,CsGeBr3,191.7415934285745,3.8560615897360915,Monoclinic,Cm,8.0,m,0.1,1.16.2,mp-642739,-3.53446659,-1.4989635465862072,15.38208048,4.477748746666667,
5.0,3.0,CsGeBr3,182.0146934299267,4.062130257958362,Trigonal,R3m,160.0,3m,0.1,1.16.2,mp-1068340,-3.5350909800000005,-1.4995879365862073,,,"['icsd-80319', 'icsd-62558', 'icsd-80318', 'icsd-80317']"
5.0,3.0,CsGeBr3,169.417801492696,4.364165908542947,Cubic,Pm-3m,221.0,m-3m,0.1,1.16.2,mp-570223,-3.522575448,-1.487072404586207,11.073192920000002,6.5499082000000035,['icsd-80320']
5.0,3.0,CsGeI3,234.16603554860086,4.157331105019944,Monoclinic,Cm,8.0,m,0.1,1.16.2,mp-642690,-3.0815774740000004,-1.093871618586207,29.473929006666662,5.694168333333334,
5.0,3.0,CsGeI3,225.06811678964056,4.325382720624483,Trigonal,R3m,160.0,3m,0.1,1.16.2,mp-28377,-3.090217248,-1.102511392586207,22.93091800687185,6.125620713333333,['icsd-62559']
30.0,3.0,BaGeO3,567.9852833160062,4.525060472578735,Triclinic,P1,1.0,1,0.1,1.16.2,mp-676865,-6.521994367333334,-2.2455805815833343,,,
5.0,3.0,BaGeO3,63.06327955363161,6.792562890088615,Cubic,Pm-3m,221.0,m-3m,0.1,1.16.2,mp-1016823,-6.740814964,-2.46440117825,,,
20.0,3.0,BaGeO3,345.7138411355125,4.956252732217032,Orthorhombic,P2_12_12_1,19.0,222,0.1,1.16.2,mp-13863,-6.9731783735,-2.696764587749999,11.98819577333333,3.2199016666666664,['icsd-23925']
40.0,3.0,BaGeS3,1100.0027687662703,3.697401324024581,Monoclinic,P2_1/c,14.0,2/m,0.1,1.16.2,mp-1195469,-5.22413866275,-1.4338681836249996,,,['icsd-252049']
5.0,3.0,NdGeO3,62.49751342505111,7.037782720688485,Cubic,Pm-3m,221.0,m-3m,0.1,1.16.2,mp-975347,-7.338424784,-2.4921764997499998,,,
5.0,3.0,SmGeO3,61.47479159443134,7.320124011921715,Cubic,Pm-3m,221.0,m-3m,0.1,1.16.2,mp-978926,-7.296009504,-2.45967347925,,,
5.0,3.0,EuGeO3,56.591825126869544,7.998798443526121,Cubic,Pm-3m,221.0,m-3m,0.1,1.16.2,mp-865181,-8.551858304,-2.6078391462499995,,,
30.0,3.0,EuGeS3,758.0085476455866,4.216569380496866,Triclinic,P-1,2.0,-1,0.1,1.16.2,mp-581575,-6.824023990333333,-1.3661481392083326,,,"['icsd-2410', 'icsd-631316']"
5.0,3.0,TbGeO3,60.04338473889156,7.731512778487517,Cubic,Pm-3m,221.0,m-3m,0.1,1.16.2,mp-981132,-7.222090068,-2.40259805025,,,
5.0,3.0,HoGeO3,59.543920169682785,7.963830434741589,Cubic,Pm-3m,221.0,m-3m,0.1,1.16.2,mp-982558,-7.165676248,-2.3565756762500003,,,
5.0,3.0,TmGeO3,58.73100332958047,8.187265194775403,Cubic,Pm-3m,221.0,m-3m,0.1,1.16.2,mp-1187655,-7.0961929580000005,-2.3084070755833337,,,
5.0,3.0,YbGeO3,49.99877572728484,9.753521301575487,Cubic,Pm-3m,221.0,m-3m,0.1,1.16.2,mp-865758,-6.966526748,-2.7659862942499998,,,
5.0,3.0,LuGeO3,58.23110114881499,8.429584418052782,Cubic,Pm-3m,221.0,m-3m,0.1,1.16.2,mp-1185514,-7.058339924,-2.2615310222500007,,,
5.0,3.0,TlGeO3,57.634793859463905,9.364324257859888,Cubic,Pm-3m,221.0,m-3m,0.1,1.16.2,mp-1187533,-5.733962968,-1.368815540916667,,,
5.0,3.0,TlGeF3,105.97098872631973,5.233987064051521,Triclinic,P1,1.0,1,0.1,1.16.2,mp-998712,-4.8250328840000005,-2.281011303166667,12.184594859999999,3.0350884099999997,
10.0,3.0,TlGeF3,192.73509778140414,5.755576338123737,Monoclinic,P2_1/m,11.0,2/m,0.1,1.16.2,mp-998711,-4.853020763,-2.3089991821666667,,,
5.0,3.0,TlGeCl3,151.03928858108335,4.214938328785889,Monoclinic,Cm,8.0,m,0.1,1.16.2,mp-998744,-3.7593213800000003,-1.2530651836666666,,,
20.0,3.0,TlGeBr3,617.8031051932752,5.555550922476075,Orthorhombic,Pnma,62.0,mmm,0.1,1.16.2,mp-998746,-3.40783439,-1.0788831916666666,,,
5.0,3.0,TlGeBr3,171.58750587347944,5.000708812528363,Monoclinic,Cm,8.0,m,0.1,1.16.2,mp-998153,-3.3798346519999996,-1.0508834536666662,,,
20.0,3.0,TlGeI3,768.288708546055,5.686391015996473,Orthorhombic,Pnma,62.0,mmm,0.1,1.16.2,mp-29288,-2.999773986,-0.7186199756666664,,,['icsd-201144']
60.0,3.0,GePbO3,963.397868023716,6.780851276832049,Monoclinic,P2/c,13.0,2/m,0.1,1.16.2,mp-553898,-6.552029497333334,-1.9168812855833333,,,['icsd-200595']
30.0,3.0,GePbO3,513.9167066238759,6.355755299726998,Trigonal,R-3,148.0,-3,0.1,1.16.2,mp-554699,-6.565139741,-1.9299915292500003,,,['icsd-172521']
5.0,3.0,GePbO3,58.79294308872988,9.259412950330407,Cubic,Pm-3m,221.0,m-3m,0.1,1.16.2,mp-1017566,-6.347383798,-1.71223558625,,,"['icsd-185696', 'icsd-185701', 'icsd-185694', 'icsd-185695', 'icsd-185697', 'icsd-185693', 'icsd-185698', 'icsd-185700', 'icsd-185699']"
20.0,3.0,GePbS3,517.5790037198703,4.825704315060559,Monoclinic,P2_1/c,14.0,2/m,0.1,1.16.2,mp-624190,-4.8821441055,-0.7331392003750004,17.763227893333333,6.520884626666667,"['icsd-637520', 'icsd-2090']"
5.0,3.0,GeBiO3,61.53209907785566,8.895268820351014,Cubic,Pm-3m,221.0,m-3m,0.1,1.16.2,mp-1184562,-6.117669014,-1.4569523902500001,,,
20.0,2.0,As2O3,350.01901256938044,3.754348899841178,Monoclinic,P2_1,4.0,2,0.1,1.16.2,mp-1105118,-6.441547346,-1.6098867572499997,,,['icsd-238655']
120.0,2.0,As2O3,2171.6292612727602,3.630712253324062,Monoclinic,P2_1/c,14.0,2/m,0.1,1.16.2,mp-1195383,-6.455379343166667,-1.6237187544166678,,,"['icsd-238652', 'icsd-238651', 'icsd-238653', 'icsd-238654']"
20.0,2.0,As2O3,375.77566661651457,3.4970159366503193,Tetragonal,P4_2/n,86.0,4/m,0.1,1.16.2,mp-1189365,-6.4402883410000005,-1.6086277522499999,,,['icsd-183096']
20.0,2.0,As2O3,519.5480974800329,2.529300946605529,Orthorhombic,Pccn,56.0,mmm,0.1,1.16.2,mp-1106211,-6.388643548999999,-1.5569829602499994,,,
40.0,2.0,As2O3,667.2521918307361,3.9388210660136695,Monoclinic,P2_1/c,14.0,2/m,0.1,1.16.2,mp-1194715,-6.4578646865,-1.6262040977499992,,,"['icsd-238650', 'icsd-238649', 'icsd-238662', 'icsd-238663', 'icsd-238646', 'icsd-238645', 'icsd-238648']"
20.0,2.0,As2O3,544.8648034795293,2.4117790071435943,Monoclinic,P2_1/c,14.0,2/m,0.1,1.16.2,mp-1105631,-5.3127115115,-0.4810509227499999,,,['icsd-238665']
20.0,2.0,As2O3,346.29033389017377,3.7947738246142166,Cubic,Fd-3m,227.0,m-3m,0.1,1.16.2,mp-2184,-6.4521274790000005,-1.6204668902500003,3.8342179400498217,2.800393763355778,"['icsd-238612', 'icsd-238627', 'icsd-238632', 'icsd-238636', 'icsd-238616', 'icsd-238634', 'icsd-238637', 'icsd-238613', 'icsd-36144', 'icsd-238630', 'icsd-238621', 'icsd-238615', 'icsd-238631', 'icsd-238625', 'icsd-238629', 'icsd-238633', 'icsd-238617', 'icsd-238628', 'icsd-238622', 'icsd-238626', 'icsd-409611', 'icsd-238624', 'icsd-238635', 'icsd-238619', 'icsd-183098', 'icsd-2114', 'icsd-238620', 'icsd-16850', 'icsd-238618', 'icsd-238623', 'icsd-238614', 'icsd-24227']"
20.0,2.0,As2O3,336.56695091597635,3.9044044318285165,Monoclinic,P2_1/c,14.0,2/m,0.1,1.16.2,mp-1581,-6.4615085155,-1.62984792675,6.566261253333333,3.4101223866666666,"['icsd-238643', 'icsd-4108', 'icsd-655563', 'icsd-238642', 'icsd-238641', 'icsd-183099', 'icsd-238664', 'icsd-238644']"
20.0,2.0,As2O3,319.14943889553336,4.117486464369091,Monoclinic,P2_1/c,14.0,2/m,0.1,1.16.2,mp-1582,-6.455055289500001,-1.6233947007500007,6.477689456666667,3.5164252566666665,"['icsd-100434', 'icsd-27588', 'icsd-38017', 'icsd-655562']"
20.0,2.0,As2S3,526.4141283759965,3.1044458797969714,Triclinic,P-1,2.0,-1,0.1,1.16.2,mp-1189572,-4.771705612,-0.426188329875,,,['icsd-185819']
20.0,2.0,As2S3,511.45441353607777,3.1952489384246925,Monoclinic,P2_1/c,14.0,2/m,0.1,1.16.2,mp-641,-4.774922703500001,-0.42940542137500015,7.546351556666667,5.526200763333333,"['icsd-15239', 'icsd-25792', 'icsd-655775']"
10.0,2.0,As2Se3,254.87896411255014,5.039011232617804,Monoclinic,C2/m,12.0,2/m,0.1,1.16.2,mp-1078443,-4.362616479000001,-0.40142223040624997,57.925305560000005,17.12610807,"['icsd-611373', 'icsd-291473']"
20.0,2.0,As2Se3,561.6818628364059,4.573186524611721,Monoclinic,P2_1/c,14.0,2/m,0.1,1.16.2,mp-909,-4.3578164625,-0.3966222139062495,10.408760983333332,8.079003949999999,"['icsd-29535', 'icsd-44058', 'icsd-2600', 'icsd-43226']"