nsites,nelements,formula_pretty,volume,density,crystal_system,symbol,number,point_group,symprec,version,material_id,energy_per_atom,formation_energy_per_atom,e_total,e_electronic,icsd
20.0,3.0,CaTiO3,224.09973769300066,4.02925941391082,Orthorhombic,Pnma,62.0,mmm,0.1,1.16.2,mp-4019,-8.5050821395,-3.5568505334166667,,,"['icsd-162911', 'icsd-74216', 'icsd-185443', 'icsd-16688', 'icsd-193648', 'icsd-163663', 'icsd-185447', 'icsd-185444', 'icsd-185454', 'icsd-74212', 'icsd-185451', 'icsd-97828', 'icsd-162916', 'icsd-185448', 'icsd-94568', 'icsd-150420', 'icsd-186224', 'icsd-185449', 'icsd-165801', 'icsd-50364', 'icsd-185452', 'icsd-51024', 'icsd-62149', 'icsd-71915', 'icsd-162915', 'icsd-185446', 'icsd-167888', 'icsd-167809', 'icsd-71916', 'icsd-162909', 'icsd-180956', 'icsd-162914', 'icsd-185453', 'icsd-163528', 'icsd-162908', 'icsd-162913', 'icsd-162917', 'icsd-85101', 'icsd-185445', 'icsd-162918', 'icsd-157115', 'icsd-163662', 'icsd-162912', 'icsd-185450', 'icsd-74215', 'icsd-174127', 'icsd-189135', 'icsd-74213', 'icsd-162910', 'icsd-74214', 'icsd-82487', 'icsd-96258', 'icsd-153172', 'icsd-93082', 'icsd-37263']"
10.0,3.0,CaTiO3,112.52875726749468,4.0121121021892705,Orthorhombic,Imma,74.0,mmm,0.1,1.16.2,mp-556003,-8.494010028,-3.5457784219166664,,,
10.0,3.0,CaTiO3,124.95341697913328,3.6131704101587654,Trigonal,R-3,148.0,-3,0.1,1.16.2,mp-754701,-8.476729451,-3.5284978449166666,,,
10.0,3.0,CaTiO3,112.41312515722095,4.016239102380592,Tetragonal,I4/mcm,140.0,4/mmm,0.1,1.16.2,mp-3442,-8.486598432,-3.538366825916666,,,"['icsd-162919', 'icsd-162920', 'icsd-162922', 'icsd-162921']"
20.0,3.0,CaTiO3,225.02899171175915,4.012620644503752,Orthorhombic,Cmcm,63.0,mmm,0.1,1.16.2,mp-1205364,-8.4924123725,-3.544180766416667,,,"['icsd-38212', 'icsd-29116']"
5.0,3.0,CaTiO3,58.83985762289643,3.836497971925326,Cubic,Pm-3m,221.0,m-3m,0.1,1.16.2,mp-5827,-8.440614542,-3.492382935916667,,,"['icsd-31864', 'icsd-187294', 'icsd-165076', 'icsd-162923', 'icsd-153174', 'icsd-162924', 'icsd-187293', 'icsd-153173', 'icsd-162925', 'icsd-77060', 'icsd-162926', 'icsd-31865']"
5.0,3.0,CaVO3,56.19975561423256,4.107568071709151,Cubic,Pm-3m,221.0,m-3m,0.1,1.16.2,mp-1016853,-8.017946754,-2.8320323372500007,,,
20.0,3.0,CaVO3,224.8006192053436,4.1075388958428904,Monoclinic,P2_1/c,14.0,2/m,0.1,1.16.2,mp-1435359,-8.115363726000002,-2.929449309250001,,,
20.0,3.0,CaVO3,214.74298675462558,4.299918247158427,Orthorhombic,Pnma,62.0,mmm,0.1,1.16.2,mp-22608,-8.123021790500001,-2.9371073737500004,,,"['icsd-237336', 'icsd-88978', 'icsd-81056']"
20.0,3.0,CaCrO3,220.31739524847347,4.222917142537827,Orthorhombic,Pnma,62.0,mmm,0.1,1.16.2,mp-20772,-7.9187860535,-2.6190433567499993,,,['icsd-245840']
20.0,3.0,CaMnO3,231.9933662023385,4.094612613977578,Hexagonal,P6_3/mmc,194.0,6/mmm,0.1,1.16.2,mp-1188497,-7.618064101499999,-2.4165278403362067,,,['icsd-168906']
20.0,3.0,CaMnO3,218.02043676963348,4.357036329648904,Orthorhombic,Pnma,62.0,mmm,0.1,1.16.2,mp-19201,-7.7027377015,-2.5012014403362075,,,"['icsd-157060', 'icsd-182812', 'icsd-161468', 'icsd-86645', 'icsd-161464', 'icsd-161465', 'icsd-153238', 'icsd-160305', 'icsd-35218', 'icsd-189133', 'icsd-161472', 'icsd-153239', 'icsd-161466', 'icsd-157059', 'icsd-162110', 'icsd-181177', 'icsd-166856', 'icsd-92083', 'icsd-161469', 'icsd-153237', 'icsd-182811', 'icsd-161467', 'icsd-161471', 'icsd-182823', 'icsd-169379', 'icsd-189134', 'icsd-165699', 'icsd-161463', 'icsd-50997', 'icsd-161470', 'icsd-93036']"
5.0,3.0,CaMnO3,54.946370694131424,4.322045985981163,Cubic,Pm-3m,221.0,m-3m,0.1,1.16.2,mp-1017467,-7.6212630180000005,-2.4197267568362077,,,"['icsd-168902', 'icsd-168903', 'icsd-181782', 'icsd-168905']"
20.0,3.0,CaFeO3,210.95958245175632,4.53142298319831,Orthorhombic,Pnma,62.0,mmm,0.1,1.16.2,mp-19115,-7.2924198515,-2.22928240675,,,"['icsd-92353', 'icsd-92344', 'icsd-92348', 'icsd-92338', 'icsd-92350', 'icsd-92337', 'icsd-92330', 'icsd-92339', 'icsd-92342', 'icsd-92341', 'icsd-92352', 'icsd-92351', 'icsd-92343', 'icsd-92340', 'icsd-92346', 'icsd-92336', 'icsd-92349', 'icsd-248483', 'icsd-92347']"
20.0,3.0,CaFeO3,226.6302730514852,4.218090935409315,Monoclinic,P2_1/c,14.0,2/m,0.1,1.16.2,mp-1272846,-7.2877994345,-2.2246619897500004,,,"['icsd-92345', 'icsd-248484']"
20.0,3.0,CaFeO3,227.3429585065414,4.204867864514492,Orthorhombic,Pmma,51.0,mmm,0.1,1.16.2,mp-1278982,-7.239529129999999,-2.1763916852499996,,,
5.0,3.0,CaFeO3,56.47327359803378,4.231856237217894,Cubic,Pm-3m,221.0,m-3m,0.1,1.16.2,mp-1001571,-7.2402726,-2.1771351552500002,,,
5.0,3.0,CaCoO3,53.30553410603655,4.579540335701955,Cubic,Pm-3m,221.0,m-3m,0.1,1.16.2,mp-1099934,-6.677725452,-1.88692869025,,,
20.0,3.0,CaCoO3,214.85258326942397,4.544787683536706,Orthorhombic,Pnma,62.0,mmm,0.1,1.16.2,mp-1368304,-6.772877062000001,-1.9820803002500007,,,
5.0,3.0,CaCoO3,97.80442736496283,2.495948804483074,Monoclinic,Cm,8.0,m,0.1,1.16.2,mp-1399298,-6.354939556,-1.5641427942499995,,,
5.0,3.0,CaNiH3,43.03193756126438,3.928127553226888,Cubic,Pm-3m,221.0,m-3m,0.1,1.16.2,mp-1207078,-4.1553816900000005,-0.5625987510000001,,,['icsd-171478']
20.0,3.0,CaNiO3,219.31057008526895,4.445141964557334,Orthorhombic,Pnma,62.0,mmm,0.1,1.16.2,mp-1368210,-6.2955513885,-1.7703908497500003,,,
10.0,3.0,CaNiO3,111.93005701039907,4.354802652635339,Hexagonal,P6_3mc,186.0,6mm,0.1,1.16.2,mp-754103,-6.278679832,-1.7535192932500003,,,
5.0,3.0,CaCuO3,55.02966228172412,4.575252255317861,Cubic,Pm-3m,221.0,m-3m,0.1,1.16.2,mp-1099873,-5.890185774,-1.70121123725,,,
5.0,3.0,CaZnO3,58.258778748431645,4.374759928378614,Cubic,Pm-3m,221.0,m-3m,0.1,1.16.2,mp-1183540,-5.4239733800000005,-1.8028914552500006,,,
80.0,3.0,CaGeO3,969.4508785919637,4.40456402078852,Tetragonal,I4_1/a,88.0,4/m,0.1,1.16.2,mp-554549,-7.030077613624999,-2.736338839874999,,,"['icsd-171080', 'icsd-171081']"
5.0,3.0,CaGeO3,54.1490255087543,4.928537978810958,Cubic,Pm-3m,221.0,m-3m,0.1,1.16.2,mp-1016884,-6.873712094,-2.5799733202499993,,,
30.0,3.0,CaGeO3,438.5384044777961,3.6513408086111356,Monoclinic,C2/c,15.0,2/m,0.1,1.16.2,mp-776074,-7.0144126663333335,-2.720673892583334,,,
30.0,3.0,CaGeO3,418.57112569596745,3.825522292658277,Triclinic,P-1,2.0,-1,0.1,1.16.2,mp-776086,-7.023572567666667,-2.7298337939166677,,,
30.0,3.0,CaGeO3,436.38233200713995,3.669381308468726,Triclinic,P-1,2.0,-1,0.1,1.16.2,mp-17761,-7.044484095333334,-2.750745321583334,,,['icsd-403086']
20.0,3.0,CaGeO3,216.4272088717933,4.932384058856298,Orthorhombic,Pnma,62.0,mmm,0.1,1.16.2,mp-8130,-6.9371081895,-2.64336941575,,,"['icsd-194917', 'icsd-194908', 'icsd-194916', 'icsd-194909', 'icsd-194903', 'icsd-194910', 'icsd-194912', 'icsd-194914', 'icsd-194918', 'icsd-194915', 'icsd-194911', 'icsd-194913', 'icsd-31338', 'icsd-194906', 'icsd-194907', 'icsd-194904', 'icsd-194905', 'icsd-194902', 'icsd-194919']"
5.0,3.0,RbCaH3,92.40505411028691,2.3104242386255964,Cubic,Pm-3m,221.0,m-3m,0.1,1.16.2,mp-23949,-3.11397772,-0.48111530249999956,11.547902730000006,3.1450418399999993,"['icsd-65195', 'icsd-165895', 'icsd-168717', 'icsd-165894']"
5.0,3.0,RbCaO3,98.39510984595381,2.9287694502826014,Cubic,Pm-3m,221.0,m-3m,0.1,1.16.2,mp-975382,-5.050003676,-1.48476365875,,,
5.0,3.0,RbCaF3,88.37611823763214,3.42984602336079,Cubic,Pm-3m,221.0,m-3m,0.1,1.16.2,mp-3654,-5.462588439999999,-3.718474268999999,15.276793090000007,2.117062610000003,"['icsd-201253', 'icsd-201252']"
10.0,3.0,RbCaCl3,305.2231982181201,2.523313970760944,Trigonal,R3c,161.0,3m,0.1,1.16.2,mp-998324,-4.319587392,-2.6132386055,,,
20.0,3.0,RbCaBr3,704.5146197337431,3.443646614513652,Orthorhombic,Pnma,62.0,mmm,0.1,1.16.2,mp-1209238,-3.863515468,-2.3344716794999996,8.095624869999998,2.919716283333333,
5.0,3.0,RbCaBr3,189.3354570837068,3.203440367813513,Monoclinic,Cm,8.0,m,0.1,1.16.2,mp-998198,-3.839356738,-2.3103129494999997,,,
20.0,3.0,RbCaBr3,682.9501196873715,3.5523815212625673,Orthorhombic,Pnma,62.0,mmm,0.1,1.16.2,mp-998536,-3.8627330004999996,-2.3336892119999995,,,
5.0,3.0,RbCaBr3,188.79224295977733,3.212657664168919,Cubic,Pm-3m,221.0,m-3m,0.1,1.16.2,mp-1209227,-3.8398539480000005,-2.3108101595,,,
5.0,3.0,RbCaI3,239.40448846704473,3.511476336195656,Monoclinic,Cm,8.0,m,0.1,1.16.2,mp-998325,-3.2808897299999997,-1.7996431294999997,,,
20.0,3.0,RbCaI3,853.7382408155224,3.9387397955983356,Orthorhombic,Pnma,62.0,mmm,0.1,1.16.2,mp-998592,-3.3267970159999996,-1.8455504154999995,7.88062174,3.3889865233333327,
5.0,3.0,SrCaO3,83.81772037171805,3.4807723552883685,Cubic,Pm-3m,221.0,m-3m,0.1,1.16.2,mp-978842,-5.886164708,-2.1791328145833333,,,
5.0,3.0,CaYO3,82.06034800537797,3.581335142433154,Cubic,Pm-3m,221.0,m-3m,0.1,1.16.2,mp-1183544,-7.493833682,-2.831406256583334,,,
5.0,3.0,CaZrO3,71.99498215571205,4.135496361472064,Cubic,Pm-3m,221.0,m-3m,0.1,1.16.2,mp-542112,-8.55771869,-3.4790453612500003,,,"['icsd-29003', 'icsd-56094']"
20.0,3.0,CaZrO3,258.7265007863652,4.603084505750543,Orthorhombic,Pnma,62.0,mmm,0.1,1.16.2,mp-4571,-8.7496117745,-3.670938445750001,48.724951613333324,4.712914066666666,"['icsd-97463', 'icsd-183757', 'icsd-37264', 'icsd-183758', 'icsd-130053', 'icsd-97465', 'icsd-239370', 'icsd-167889', 'icsd-97464', 'icsd-97466']"
40.0,3.0,CaZrO3,542.7856698013446,4.3882512500105175,Orthorhombic,Pba2,32.0,mm2,0.1,1.16.2,mp-776024,-8.724246397749999,-3.6455730689999997,,,
20.0,3.0,CaZrS3,450.7956097659229,3.352008296890533,Orthorhombic,Pnma,62.0,mmm,0.1,1.16.2,mp-7781,-6.625294913499999,-2.032764891375,,,['icsd-23286']
20.0,3.0,CaNbO3,253.67357057356134,4.738824683778576,Orthorhombic,Pnma,62.0,mmm,0.1,1.16.2,mp-4957,-8.547165728,-3.1577715172500005,,,"['icsd-51202', 'icsd-85569']"
10.0,3.0,CaMoN3,134.27188237425247,4.403590910704745,Orthorhombic,Pmm2,25.0,mm2,0.1,1.16.2,mp-989401,-8.318599773999999,-0.7464528209999983,,,
10.0,3.0,CaMoN3,157.61117288901912,3.7515007974899066,Monoclinic,P2/m,10.0,2/m,0.1,1.16.2,mp-989649,-8.338714055,-0.7665671019999991,,,
10.0,3.0,CaMoN3,140.0983293035419,4.220453189740689,Monoclinic,C2/m,12.0,2/m,0.1,1.16.2,mp-989635,-8.365483229,-0.7933362759999995,23.82235616,10.153964763333333,
20.0,3.0,CaMoO3,251.53959017651147,4.859133129267733,Monoclinic,P2_1/c,14.0,2/m,0.1,1.16.2,mp-607467,-8.158404337499999,-2.6201411127499994,,,
20.0,3.0,CaMoO3,238.54423915062335,5.123847720243391,Orthorhombic,Pnma,62.0,mmm,0.1,1.16.2,mp-19012,-8.152042065,-2.6137788402499993,,,"['icsd-172790', 'icsd-246082']"
20.0,3.0,CaMoO3,251.89585819007442,4.852260631561575,Triclinic,P-1,2.0,-1,0.1,1.16.2,mp-1045305,-8.148709528,-2.6104463032499994,,,
10.0,3.0,CaTcN3,137.57271785455993,4.3476633381132395,Monoclinic,C2/m,12.0,2/m,0.1,1.16.2,mp-989638,-8.061781688,-0.5866369679999991,18.611529516666668,12.283254880000001,
20.0,3.0,CaTcN3,317.7861076091947,3.76429206575902,Monoclinic,C2/c,15.0,2/m,0.1,1.16.2,mp-989634,-8.0496891555,-0.5745444354999989,,,
5.0,3.0,CaTcO3,61.075122732895636,5.059126951177647,Monoclinic,Cm,8.0,m,0.1,1.16.2,mp-998432,-7.80810074,-2.3668397482500003,,,
20.0,3.0,CaTcO3,234.84739259201066,5.262767383604945,Orthorhombic,Pnma,62.0,mmm,0.1,1.16.2,mp-1188853,-7.9171406865,-2.4758796947499997,,,"['icsd-261342', 'icsd-261341']"
5.0,3.0,CaTcO3,61.07621566601265,5.059036420234826,Tetragonal,P4mm,99.0,4mm,0.1,1.16.2,mp-998525,-7.808188792,-2.36692780025,,,
10.0,3.0,CaTcO3,119.52833820373253,5.170101151039446,Trigonal,R3c,161.0,3m,0.1,1.16.2,mp-998543,-7.887651867,-2.4463908752499997,,,
5.0,3.0,CaRuO3,60.67733082827061,5.176309671364111,Cubic,Pm-3m,221.0,m-3m,0.1,1.16.2,mp-1016835,-7.286232304,-2.0622185932500003,,,
20.0,3.0,CaRuO3,227.7433091928982,5.51646773750719,Orthorhombic,Pnma,62.0,mmm,0.1,1.16.2,mp-20947,-7.4514657015,-2.2274519907499992,,,"['icsd-82976', 'icsd-165689', 'icsd-162776', 'icsd-165791', 'icsd-56698', 'icsd-82975', 'icsd-166221', 'icsd-82974', 'icsd-190466', 'icsd-69359', 'icsd-75568', 'icsd-82972', 'icsd-157114', 'icsd-82973', 'icsd-190465', 'icsd-82971', 'icsd-190467', 'icsd-51291', 'icsd-99451', 'icsd-82970']"
5.0,3.0,CaRhO3,61.82709777288515,5.129345954756469,Cubic,Pm-3m,221.0,m-3m,0.1,1.16.2,mp-1016833,-6.678481974,-1.8364871972500005,,,
20.0,3.0,CaRhO3,226.3073630109768,5.6053425683776625,Orthorhombic,Pnma,62.0,mmm,0.1,1.16.2,mp-1181917,-6.9220317135,-2.0800369367500005,,,['icsd-164775']
10.0,3.0,CaRhO3,111.3420908940552,5.696544250411837,Orthorhombic,Cmcm,63.0,mmm,0.1,1.16.2,mp-1078659,-6.93581445,-2.0938196732499996,,,['icsd-164774']
30.0,3.0,CaRhO3,335.78585891720996,5.666693199260762,Monoclinic,P2_1/m,11.0,2/m,0.1,1.16.2,mp-1193602,-6.935578542000001,-2.093583765250001,,,['icsd-183583']
5.0,3.0,CaH3Pd,50.92933491625866,4.875124009127207,Cubic,Pm-3m,221.0,m-3m,0.1,1.16.2,mp-1207169,-3.987623668,-0.514891703,,,
5.0,3.0,CaInO3,72.13462947097263,4.6706241919788285,Cubic,Pm-3m,221.0,m-3m,0.1,1.16.2,mp-1183543,-5.9006614399999995,-1.9811914912499993,,,
10.0,3.0,CaInBr3,327.873726444337,3.9970387813561894,Orthorhombic,Cmcm,63.0,mmm,0.1,1.16.2,mp-28534,-3.759740196,-1.8764664759999998,336.9256319933332,3.99098609,['icsd-54138']
10.0,3.0,CaInI3,409.7901296905657,4.3407602345872345,Orthorhombic,Cmcm,63.0,mmm,0.1,1.16.2,mp-1206105,-3.243666941,-1.4081904090000001,,,
10.0,3.0,CaSnO3,173.27347287152,3.9634060291314195,Triclinic,P-1,2.0,-1,0.1,1.16.2,mp-1182670,-5.779489395000001,-1.6084418212500005,,,
5.0,3.0,CaSnO3,82.30907163608116,4.1717948788434365,Cubic,Pm-3m,221.0,m-3m,0.1,1.16.2,mp-546910,-5.416595548,-1.2455479742500004,,,['icsd-27777']
5.0,3.0,CaSnO3,67.24159084581586,5.106609751710353,Cubic,Pm-3m,221.0,m-3m,0.1,1.16.2,mp-7986,-6.656275543999999,-2.485227970249999,,,"['icsd-181086', 'icsd-181087', 'icsd-56095', 'icsd-29149']"
20.0,3.0,CaSnO3,248.80571219239832,5.520396786842774,Orthorhombic,Pnma,62.0,mmm,0.1,1.16.2,mp-4438,-6.837476119500001,-2.6664285457500005,,,"['icsd-151591', 'icsd-151594', 'icsd-151598', 'icsd-151597', 'icsd-193658', 'icsd-151593', 'icsd-151596', 'icsd-151592', 'icsd-190603', 'icsd-59160', 'icsd-151595']"
10.0,3.0,CaSnO3,134.53390939302432,5.104684240322317,Trigonal,R-3,148.0,-3,0.1,1.16.2,mp-4190,-6.851495226,-2.6804476522500003,11.249227810000002,3.863697943333334,"['icsd-29204', 'icsd-2373']"
5.0,3.0,CaSnS3,124.56235415941737,3.3991749407447793,Orthorhombic,Amm2,38.0,mm2,0.1,1.16.2,mp-866917,-4.778053584,-1.0931493168750002,,,
10.0,3.0,CaSnS3,245.89291981375573,3.4438505438836264,Trigonal,R-3,148.0,-3,0.1,1.16.2,mp-866826,-5.000754142,-1.3158498748750005,,,
60.0,3.0,CaSnS3,1700.5627281387194,2.987782049879168,Monoclinic,C2/c,15.0,2/m,0.1,1.16.2,mp-1100379,-4.931923421166667,-1.2470191540416669,,,
25.0,3.0,CaSnS3,630.1849156487176,3.3594046945967184,Monoclinic,C2/m,12.0,2/m,0.1,1.16.2,mp-1100357,-4.8178804836,-1.1329762164749997,,,
5.0,3.0,CaSnS3,131.57279279396633,3.218060693458842,Orthorhombic,Amm2,38.0,mm2,0.1,1.16.2,mp-866894,-4.578066252,-0.8931619848750003,,,
20.0,3.0,CaSnS3,501.3774637944209,3.377967805848391,Hexagonal,P6_3/mmc,194.0,6/mmm,0.1,1.16.2,mp-1100323,-4.619688876500001,-0.9347846093750007,,,
10.0,3.0,CaSnS3,237.95322059908239,3.5587602618100527,Orthorhombic,Ima2,46.0,mm2,0.1,1.16.2,mp-866845,-4.908704038,-1.2237997708750001,,,
15.0,3.0,CaSnS3,387.99217183951856,3.273848780077953,Trigonal,R-3m,166.0,-3m,0.1,1.16.2,mp-1054609,-4.7039865160000005,-1.0190822488750007,,,
20.0,3.0,CaSnS3,514.5442982539549,3.2915279345677857,Orthorhombic,P2_12_12_1,19.0,222,0.1,1.16.2,mp-1100340,-4.956830102,-1.2719258348750002,,,
30.0,3.0,CaSnS3,777.3925338958659,3.267918440355781,Orthorhombic,Cmcm,63.0,mmm,0.1,1.16.2,mp-1100371,-4.82186684,-1.1369625728750004,,,
30.0,3.0,CaSnS3,763.1222389932685,3.3290281256442533,Monoclinic,P2_1,4.0,2,0.1,1.16.2,mp-866504,-4.890827036999999,-1.2059227698749997,,,
40.0,3.0,CaSnS3,1095.1147273793472,3.0930767141236633,Monoclinic,P2_1/c,14.0,2/m,0.1,1.16.2,mp-1100358,-4.92024090025,-1.2353366331250002,,,
100.0,3.0,CaSnS3,2809.419067078957,3.0142119969243315,Tetragonal,P4_1,76.0,4,0.1,1.16.2,mp-866505,-4.9091017564,-1.224197489275,,,
5.0,3.0,CaSnS3,125.83547952155797,3.3647841962276615,Cubic,Pm-3m,221.0,m-3m,0.1,1.16.2,mp-866816,-4.59286501,-0.9079607428750002,,,
20.0,3.0,CaSnS3,527.0690954827661,3.2133110170767902,Orthorhombic,Pmc2_1,26.0,mm2,0.1,1.16.2,mp-1100365,-4.8131802415000005,-1.1282759743750006,,,
30.0,3.0,CaSnS3,883.993703306268,2.8738387925293196,Triclinic,P1,1.0,1,0.1,1.16.2,mp-867022,-4.887189198333333,-1.2022849312083332,,,
10.0,3.0,CaSnS3,235.5703956907269,3.5947575804452834,Trigonal,R-3c,167.0,-3m,0.1,1.16.2,mp-866519,-4.877091551,-1.1921872838750005,,,
60.0,3.0,CaSnS3,1629.5220744870371,3.1180374131635196,Monoclinic,C2,5.0,2,0.1,1.16.2,mp-867047,-4.8603325181666674,-1.1754282510416671,,,
15.0,3.0,CaSnS3,373.4980460297501,3.4008951638676748,Trigonal,R-3m,166.0,-3m,0.1,1.16.2,mp-866951,-4.637990930666667,-0.9530866635416672,,,
5.0,3.0,CaSnS3,141.03626094188232,3.00213030316611,Cubic,Pm-3m,221.0,m-3m,0.1,1.16.2,mp-866820,-4.067921308000001,-0.3830170408750007,,,
90.0,3.0,CaSnS3,2491.749258894472,3.0586408979694175,Triclinic,P1,1.0,1,0.1,1.16.2,mp-867053,-4.851595037666666,-1.1666907705416665,,,
60.0,3.0,CaSnS3,1790.7564626008498,2.8372985941633995,Monoclinic,P2_1/c,14.0,2/m,0.1,1.16.2,mp-1100375,-4.964343833333333,-1.2794395662083338,,,
20.0,3.0,CaSnS3,466.99045618656936,3.6267056614082898,Orthorhombic,Pnma,62.0,mmm,0.1,1.16.2,mp-866936,-4.8596792995,-1.1747750323750004,,,
100.0,3.0,CaSnS3,2797.241358211792,3.0273342811543653,Tetragonal,P4_3,78.0,4,0.1,1.16.2,mp-1331908,-4.9096085689,-1.2247043017749997,,,
10.0,3.0,CaSnS3,252.0584884446196,3.3596109810195585,Monoclinic,P2_1,4.0,2,0.1,1.16.2,mp-1100345,-4.96440673,-1.2795024628750007,,,
20.0,3.0,CaSnS3,475.39592434803626,3.5625819333603785,Orthorhombic,Pmc2_1,26.0,mm2,0.1,1.16.2,mp-1238933,-4.9400641805,-1.2551599133750002,,,
30.0,3.0,CaSnS3,812.6798833796337,3.1260222491891847,Triclinic,P-1,2.0,-1,0.1,1.16.2,mp-1100335,-4.982966499,-1.298062231875,,,
90.0,3.0,CaSnS3,2460.235743879509,3.0978194710404465,Triclinic,P-1,2.0,-1,0.1,1.16.2,mp-866629,-4.8893429901111105,-1.2044387229861109,,,
5.0,3.0,CaSnS3,132.86149795375115,3.1868467489825814,Orthorhombic,Amm2,38.0,mm2,0.1,1.16.2,mp-1100334,-4.597851624,-0.9129473568750001,,,
15.0,3.0,CaSnS3,401.51073492207297,3.163620765215991,Hexagonal,P-6m2,187.0,-6m2,0.1,1.16.2,mp-1100328,-4.845566586,-1.1606623188750003,,,
30.0,3.0,CaSnS3,893.9766403828442,2.841746956414052,Triclinic,P-1,2.0,-1,0.1,1.16.2,mp-1100330,-4.964158504666667,-1.279254237541667,,,
10.0,3.0,CaSnS3,5583.926635824841,0.1516528638117836,Monoclinic,C2,5.0,2,0.1,1.16.2,mp-1100389,-2.199625215,1.4852790521249997,,,
120.0,3.0,CaSnS3,3217.6469317947826,3.1581530861077503,Monoclinic,C2/c,15.0,2/m,0.1,1.16.2,mp-866787,-4.87137634375,-1.1864720766249996,,,
20.0,3.0,CaSnS3,458.0671251767284,3.6973553398359327,Orthorhombic,Pnma,62.0,mmm,0.1,1.16.2,mp-866844,-4.96161246,-1.2767081928750001,,,
60.0,3.0,CaSnS3,1521.189169567561,3.3400913544965607,Monoclinic,P2_1/c,14.0,2/m,0.1,1.16.2,mp-866606,-4.897321815666667,-1.212417548541667,,,
20.0,3.0,CaSnS3,504.40578386183427,3.3576873728699916,Monoclinic,Pm,6.0,m,0.1,1.16.2,mp-1100343,-4.77116527,-1.0862610028750006,,,
20.0,3.0,CaSnS3,503.22248597428916,3.3655827759692025,Monoclinic,P2_1/c,14.0,2/m,0.1,1.16.2,mp-866495,-4.910440428999999,-1.225536161875,,,
20.0,3.0,CaSnS3,526.6296381842685,3.215992432774672,Cubic,Fd-3m,227.0,m-3m,0.1,1.16.2,mp-866471,-4.7552729945,-1.0703687273750007,,,
40.0,3.0,CaSnS3,1019.8534772836334,3.3213338366731877,Hexagonal,P6_3/mmc,194.0,6/mmm,0.1,1.16.2,mp-1100344,-4.696124967,-1.0112206998750004,,,
80.0,3.0,CaSnS3,2042.7044615367174,3.316460042391753,Tetragonal,I4_1/a,88.0,4/m,0.1,1.16.2,mp-1100381,-5.0061546775000005,-1.3212504103750007,,,
40.0,3.0,CaSnS3,992.4378425645771,3.4130841421744105,Cubic,P2_13,198.0,23,0.1,1.16.2,mp-866565,-4.8382225747500005,-1.1533183076250004,,,
20.0,3.0,CaSnS3,440.30320339824056,3.846524209235946,Orthorhombic,Pnma,62.0,mmm,0.1,1.16.2,mp-866811,-4.9992920095,-1.3143877423750006,,,
20.0,3.0,CaSnS3,550.3127730062115,3.077589716886972,Monoclinic,P2_1/c,14.0,2/m,0.1,1.16.2,mp-866941,-4.9897667310000005,-1.3048624638750006,,,