nsites,nelements,formula_pretty,volume,density,crystal_system,symbol,number,point_group,symprec,version,material_id,energy_per_atom,formation_energy_per_atom,e_total,e_electronic,icsd
20.0,3.0,TbMnO3,224.7758055110435,7.738046495726133,Orthorhombic,Pnma,62.0,mmm,0.1,1.16.2,mp-22055,-8.7593693125,-3.032079807336207,,,"['icsd-252442', 'icsd-157394', 'icsd-15720', 'icsd-92084', 'icsd-92078']"
20.0,3.0,TbMnO3,270.82295315671564,6.422371567421256,Orthorhombic,Pnma,62.0,mmm,0.1,1.16.2,mp-1188379,-8.445132787999999,-2.7178432828362062,,,"['icsd-247684', 'icsd-180803', 'icsd-247683']"
20.0,3.0,DyMnO3,265.476147196803,6.641157921993781,Orthorhombic,Pnma,62.0,mmm,0.1,1.16.2,mp-1188804,-8.4585087345,-2.736735081336208,,,['icsd-180804']
20.0,3.0,DyMnO3,234.55679858536567,7.51659738148573,Orthorhombic,Pnma,62.0,mmm,0.1,1.16.2,mp-22103,-8.7599994545,-3.038225801336208,,,"['icsd-157396', 'icsd-91711', 'icsd-162205']"
30.0,3.0,DyMnO3,372.6490140346333,7.096767809612047,Hexagonal,P6_3cm,185.0,6mm,0.1,1.16.2,mp-542479,-8.782302025666667,-3.0605283725028736,,,"['icsd-191974', 'icsd-261886', 'icsd-99785']"
20.0,3.0,HoMnO3,263.68763077104825,6.747421477720456,Orthorhombic,Pnma,62.0,mmm,0.1,1.16.2,mp-1181443,-8.4773038505,-2.760405791336207,,,['icsd-180805']
30.0,3.0,HoMnO3,368.50491952317975,7.242284250543946,Hexagonal,P6_3cm,185.0,6mm,0.1,1.16.2,mp-19056,-8.788998592666667,-3.0721005335028737,,,"['icsd-191217', 'icsd-191216', 'icsd-184887', 'icsd-92838', 'icsd-191215', 'icsd-162199']"
20.0,3.0,HoMnO3,232.6493802962633,7.647609381155825,Orthorhombic,Pnma,62.0,mmm,0.1,1.16.2,mp-22081,-8.760399524,-3.043501464836207,,,"['icsd-162206', 'icsd-157395', 'icsd-165196']"
30.0,3.0,HoMnO3,382.6825028512317,6.973972823492783,Orthorhombic,Cmc2_1,36.0,mm2,0.1,1.16.2,mp-1193069,-8.473091854,-2.7561937948362063,,,
20.0,3.0,ErMnO3,219.05849135196718,8.192693324289694,Orthorhombic,Pnma,62.0,mmm,0.1,1.16.2,mp-19319,-8.762813469,-3.048853421836207,,,"['icsd-159309', 'icsd-183141', 'icsd-162208', 'icsd-159310', 'icsd-159311']"
30.0,3.0,ErMnO3,364.2792410031499,7.389986188010839,Hexagonal,P6_3cm,185.0,6mm,0.1,1.16.2,mp-19217,-8.797218649666666,-3.0832586025028736,,,"['icsd-182639', 'icsd-162201', 'icsd-280583']"
20.0,3.0,TmMnO3,228.35721964620046,7.907812370132415,Orthorhombic,Pnma,62.0,mmm,0.1,1.16.2,mp-554270,-8.7547630775,-3.0591797076695406,,,"['icsd-162209', 'icsd-183142']"
30.0,3.0,TmMnO3,360.18969890841277,7.520229139533667,Hexagonal,P6_3cm,185.0,6mm,0.1,1.16.2,mp-554211,-8.795841926000001,-3.1002585561695413,,,['icsd-162202']
20.0,3.0,YbMnO3,197.5789775819768,9.277694254408901,Orthorhombic,Pnma,62.0,mmm,0.1,1.16.2,mp-22518,-7.811913688,-2.703575746836207,,,"['icsd-171760', 'icsd-162210', 'icsd-171759']"
30.0,3.0,YbMnO3,374.3951624583627,7.3441547684586554,Hexagonal,P6_3cm,185.0,6mm,0.1,1.16.2,mp-19356,-7.603186601999999,-2.494848660836207,,,"['icsd-174277', 'icsd-279601', 'icsd-163248', 'icsd-162203', 'icsd-69539', 'icsd-160749']"
20.0,3.0,LuMnO3,225.3337197434038,8.19174681149193,Orthorhombic,Pnma,62.0,mmm,0.1,1.16.2,mp-21125,-8.765617151499999,-3.061010762336207,,,"['icsd-162211', 'icsd-160377', 'icsd-160376']"
30.0,3.0,LuMnO3,353.34289219579927,7.836057358160109,Hexagonal,P6_3cm,185.0,6mm,0.1,1.16.2,mp-18808,-8.815923649666667,-3.111317260502873,,,"['icsd-162204', 'icsd-98058', 'icsd-98059', 'icsd-158896', 'icsd-158897', 'icsd-280779', 'icsd-15882', 'icsd-158898', 'icsd-290487']"
20.0,3.0,HfMnO3,239.8651885281712,7.793032028641508,Orthorhombic,Pnma,62.0,mmm,0.1,1.16.2,mp-754657,-9.964329764999999,-3.172475673836206,,,
20.0,3.0,MnTlO3,240.1313074111218,8.500617697942056,Orthorhombic,Pnma,62.0,mmm,0.1,1.16.2,mp-770870,-6.7789154620000005,-1.5059705475028742,,,
30.0,3.0,MnTlO3,391.17953872103993,7.8273436090862,Hexagonal,P6_3cm,185.0,6mm,0.1,1.16.2,mp-768374,-6.801877481999999,-1.528932567502873,,,
20.0,3.0,MnTlO3,245.09240312916103,8.328550438722585,Triclinic,P-1,2.0,-1,0.1,1.16.2,mp-1311921,-6.7686012805,-1.495656366002874,,,
10.0,3.0,MnTlO3,135.57096356514623,7.528398367649181,Trigonal,R-3,148.0,-3,0.1,1.16.2,mp-768432,-6.710766313000001,-1.4378213985028743,,,
20.0,3.0,MnTlO3,242.41609277219445,8.420498896198211,Monoclinic,P2_1/c,14.0,2/m,0.1,1.16.2,mp-753819,-6.7706991720000005,-1.4977542575028742,,,
5.0,3.0,MnTlF3,75.96225372325313,6.914697373767145,Cubic,Pm-3m,221.0,m-3m,0.1,1.16.2,mp-998762,-6.0510001959999995,-2.5991811277528734,33.835148224933114,3.16771866705924,
5.0,3.0,MnTlCl3,130.26778865164184,4.661371049938466,Cubic,Pm-3m,221.0,m-3m,0.1,1.16.2,mp-570290,-4.826653406,-1.412599722252874,,,['icsd-23167']
20.0,3.0,MnTlCl3,505.0186013250548,4.8095376856776415,Orthorhombic,Pnma,62.0,mmm,0.1,1.16.2,mp-570300,-4.855961184,-1.4419075002528736,19.151024599999996,4.07523472,['icsd-32712']
20.0,3.0,MnTlCl3,499.51638204745547,4.862515189362319,Orthorhombic,Pnma,62.0,mmm,0.1,1.16.2,mp-30528,-4.8315689475,-1.417515263752874,,,['icsd-23168']
20.0,3.0,MnTlI3,727.3509935591042,5.844785937302204,Orthorhombic,Pnma,62.0,mmm,0.1,1.16.2,mp-23443,-3.974364912,-0.7854134142528736,,,"['icsd-26421', 'icsd-26420']"
30.0,3.0,MnPbO3,375.8712283419961,8.22079444169452,Monoclinic,C2/c,15.0,2/m,0.1,1.16.2,mp-510672,-7.187031201333332,-1.6440855021695397,,,['icsd-246351']
5.0,3.0,MnPbO3,59.98921218214787,8.58476602805571,Cubic,Pm-3m,221.0,m-3m,0.1,1.16.2,mp-37214,-7.145062928,-1.6021172288362073,,,
20.0,3.0,MnPbO3,317.29380021179304,6.492321633103095,Monoclinic,P2/c,13.0,2/m,0.1,1.16.2,mp-1188613,-7.198799509999999,-1.6558538108362064,,,['icsd-36240']
20.0,3.0,MnPbO3,308.609254869293,6.675021473471323,Monoclinic,P2/c,13.0,2/m,0.1,1.16.2,mp-1106337,-7.181937700000001,-1.6389920008362076,,,['icsd-15234']
20.0,3.0,MnBiO3,249.33978286772782,8.309139738363701,Orthorhombic,Pnma,62.0,mmm,0.1,1.16.2,mp-1105271,-7.3876401055,-1.819125994336207,,,"['icsd-238293', 'icsd-238294']"
80.0,3.0,MnBiO3,1024.836271058061,8.086361330838724,Orthorhombic,Pmn2_1,31.0,mm2,0.1,1.16.2,mp-1202955,-7.378506857374999,-1.8099927462112064,,,['icsd-182796']
20.0,3.0,MnBiO3,257.3938245834839,8.049140656477718,Monoclinic,Cc,9.0,m,0.1,1.16.2,mp-1106239,-7.383415411,-1.8149012998362068,,,"['icsd-247326', 'icsd-245299']"
20.0,3.0,MnBiO3,258.5904657881425,8.011892827783502,Monoclinic,C2/c,15.0,2/m,0.1,1.16.2,mp-23477,-7.385154106,-1.816639994836207,,,"['icsd-183903', 'icsd-238291', 'icsd-193188', 'icsd-183902', 'icsd-193189', 'icsd-56842', 'icsd-181382', 'icsd-183904', 'icsd-181383', 'icsd-181384']"
40.0,3.0,MnBiO3,554.7820297592973,7.468876016334211,Monoclinic,P2_1/c,14.0,2/m,0.1,1.16.2,mp-556711,-7.3154482555,-1.746934144336207,,,
40.0,3.0,MnBiO3,510.99412175468444,8.108896012607493,Monoclinic,P2_1/c,14.0,2/m,0.1,1.16.2,mp-1194603,-7.387102695,-1.8185885838362068,,,['icsd-238292']
5.0,3.0,AcMnO3,62.241398829787876,8.802373253340264,Cubic,Pm-3m,221.0,m-3m,0.1,1.16.2,mp-864911,-8.599044686,-2.9743933993362064,,,
10.0,3.0,ThMnSe3,242.44356424118857,7.175967160456617,Orthorhombic,Cmcm,63.0,mmm,0.1,1.16.2,mp-11778,-6.905422853999999,-1.4927012589924566,,,['icsd-99582']
10.0,3.0,UMnSe3,196.07941042901052,8.974237184531827,Orthorhombic,Cmcm,63.0,mmm,0.1,1.16.2,mp-19912,-7.237256276999998,-1.0490243299924558,,,"['icsd-99583', 'icsd-601605']"
80.0,2.0,Fe2O3,1088.266524606233,3.8985816592453566,Triclinic,P1,1.0,1,0.1,1.16.2,mp-1245084,-7.511759208625,-1.1557374978749997,,,
20.0,2.0,Fe2O3,206.16513886424826,5.144778521448036,Orthorhombic,Pnma,62.0,mmm,0.1,1.16.2,mp-1205415,-7.8865328735,-1.5305111627500003,,,
40.0,2.0,Fe2O3,420.3312716643805,5.046847806969959,Orthorhombic,Pbca,61.0,mmm,0.1,1.16.2,mp-1178392,-7.95102132675,-1.5949996160000004,,,
160.0,2.0,Fe2O3,1812.8104912842612,4.680793644563326,Triclinic,P1,1.0,1,0.1,1.16.2,mp-685153,-7.838518771625,-1.482497060875,,,
30.0,2.0,Fe2O3,384.80067779049756,4.134636603515602,Trigonal,P3,143.0,3,0.1,1.16.2,mp-557546,-7.536079454666666,-1.180057743916666,,,['icsd-36281']
40.0,2.0,Fe2O3,409.02754944690446,5.186320480047868,Monoclinic,C2,5.0,2,0.1,1.16.2,mp-715572,-7.98669888925,-1.6306771785000003,,,
80.0,2.0,Fe2O3,978.3697045481961,4.336495594126958,Triclinic,P1,1.0,1,0.1,1.16.2,mp-1244911,-7.789981575874999,-1.4339598651249994,,,
160.0,2.0,Fe2O3,1860.0826885883926,4.561835814321036,Tetragonal,P4_12_12,92.0,422,0.1,1.16.2,mp-1456,-7.94451655875,-1.5884948479999998,,,"['icsd-172906', 'icsd-70048']"
20.0,2.0,Fe2O3,207.24805096879575,5.117896034929836,Orthorhombic,Pbcn,60.0,mmm,0.1,1.16.2,mp-510080,-7.933155234500001,-1.5771335237500004,,,"['icsd-430560', 'icsd-96077']"
40.0,2.0,Fe2O3,429.68964888465183,4.936930554661182,Orthorhombic,I2_12_12_1,24.0,222,0.1,1.16.2,mp-1356129,-7.9792174305,-1.6231957197500002,,,
80.0,2.0,Fe2O3,1022.2838661935763,4.150213119373599,Triclinic,P1,1.0,1,0.1,1.16.2,mp-1245019,-7.775224226625001,-1.4192025158750006,,,
5.0,2.0,Fe2O3,54.37584282912263,4.876586380616339,Cubic,Pm-3m,221.0,m-3m,0.1,1.16.2,mp-1068212,-7.204266828,-0.84824511725,,,
20.0,2.0,Fe2O3,238.12089666468222,4.454350681342173,Orthorhombic,Cmcm,63.0,mmm,0.1,1.16.2,mp-1378486,-7.7887030205,-1.43268130975,,,
40.0,2.0,Fe2O3,454.87022708937894,4.663633340380051,Monoclinic,Cm,8.0,m,0.1,1.16.2,mp-705547,-7.904023508250001,-1.5480017975000002,,,
10.0,2.0,Fe2O3,147.9870645187782,3.5836712544749023,Monoclinic,C2/c,15.0,2/m,0.1,1.16.2,mp-1181824,-7.895749931,-1.5397282202500002,,,
40.0,2.0,Fe2O3,448.01640273307197,4.73497832592565,Orthorhombic,Pna2_1,33.0,mm2,0.1,1.16.2,mp-542896,-7.9480318555,-1.5920101447499995,,,"['icsd-173025', 'icsd-415250', 'icsd-51122', 'icsd-173024', 'icsd-161785']"
20.0,2.0,Fe2O3,204.358715837326,5.190255644121662,Orthorhombic,Pna2_1,33.0,mm2,0.1,1.16.2,mp-715276,-7.9779745779999995,-1.6219528672499997,,,
30.0,2.0,Fe2O3,372.27860173092193,4.2737104954535265,Trigonal,P3,143.0,3,0.1,1.16.2,mp-716814,-7.560828444666666,-1.2048067339166655,,,
10.0,2.0,Fe2O3,100.0463746441653,5.30091161260282,Orthorhombic,Cmcm,63.0,mmm,0.1,1.16.2,mp-1078361,-7.827425691,-1.4714039802500003,,,"['icsd-430558', 'icsd-430559', 'icsd-189439']"
10.0,2.0,Fe2O3,103.1107530196113,5.143372282900504,Trigonal,R-3c,167.0,-3m,0.1,1.16.2,mp-19770,-8.06387644,-1.7078547292499997,19.869691523879137,6.213379446680501,"['icsd-184766', 'icsd-82137', 'icsd-161288', 'icsd-182846', 'icsd-22505', 'icsd-161293', 'icsd-15840', 'icsd-182845', 'icsd-182842', 'icsd-161287', 'icsd-66756', 'icsd-64599', 'icsd-96071', 'icsd-88417', 'icsd-201097', 'icsd-96074', 'icsd-96069', 'icsd-201101', 'icsd-201098', 'icsd-43465', 'icsd-82135', 'icsd-71194', 'icsd-161290', 'icsd-82136', 'icsd-33643', 'icsd-633032', 'icsd-201096', 'icsd-633039', 'icsd-161289', 'icsd-182848', 'icsd-182844', 'icsd-41541', 'icsd-96070', 'icsd-161292', 'icsd-161285', 'icsd-24791', 'icsd-82903', 'icsd-173653', 'icsd-96073', 'icsd-56372', 'icsd-81248', 'icsd-173655', 'icsd-182843', 'icsd-161286', 'icsd-96076', 'icsd-82904', 'icsd-161294', 'icsd-201099', 'icsd-96072', 'icsd-201100', 'icsd-82134', 'icsd-161291', 'icsd-182840', 'icsd-415251', 'icsd-88418', 'icsd-40142', 'icsd-161283', 'icsd-24004', 'icsd-96075', 'icsd-245851', 'icsd-161284', 'icsd-82902', 'icsd-182847', 'icsd-182841', 'icsd-182839']"
80.0,2.0,Fe2O3,1088.4656756627246,3.897868355487951,Triclinic,P1,1.0,1,0.1,1.16.2,mp-1245277,-7.719581540875001,-1.3635598301250007,,,
80.0,2.0,Fe2O3,982.2523359429204,4.319354363385391,Triclinic,P1,1.0,1,0.1,1.16.2,mp-1244869,-7.774366820999999,-1.4183451102499993,,,
40.0,2.0,Fe2O3,436.32889122454156,4.861809518610571,Cubic,Ia-3,206.0,m-3,0.1,1.16.2,mp-565814,-7.9925775442499996,-1.6365558334999997,,,"['icsd-237290', 'icsd-108905']"
40.0,2.0,Fe2O3,412.5212429663978,5.142396889299271,Triclinic,P1,1.0,1,0.1,1.16.2,mp-776606,-7.9408548862499995,-1.5848331754999996,,,
80.0,2.0,Fe2O3,1058.0989846569764,4.009734414947935,Triclinic,P1,1.0,1,0.1,1.16.2,mp-1245078,-7.758055299874999,-1.4020335891249993,,,
80.0,2.0,Fe2O3,1057.267147322885,4.0128891963998985,Triclinic,P1,1.0,1,0.1,1.16.2,mp-1245154,-7.743000167,-1.3869784562499994,,,
10.0,2.0,Fe2S3,140.78204604385044,4.904050957642974,Trigonal,R-3c,167.0,-3m,0.1,1.16.2,mp-952567,-6.561988341,-0.6921099368749999,,,
10.0,3.0,FeNiO3,101.91843447621245,5.296360279461146,Trigonal,R-3,148.0,-3,0.1,1.16.2,mp-768499,-7.0947282970000005,-1.2766834922500003,,,
10.0,3.0,FeNiO3,101.26706381606004,5.330427562165263,Trigonal,R3,146.0,3,0.1,1.16.2,mp-1272388,-7.099244788,-1.28119998325,,,
20.0,3.0,ZnFeO3,227.47596740388872,4.942058599253891,Monoclinic,C2/c,15.0,2/m,0.1,1.16.2,mp-755535,-6.3785908425,-1.4646246517500003,,,
10.0,3.0,ZnFeO3,105.60542373837738,5.322641210251818,Trigonal,R-3,148.0,-3,0.1,1.16.2,mp-755099,-6.380725602,-1.4667594112499998,,,
20.0,3.0,ZnFeO3,203.6930685207765,5.51908599048533,Orthorhombic,Pnma,62.0,mmm,0.1,1.16.2,mp-1373518,-6.333410405,-1.4194442142500001,,,
5.0,3.0,GaFeO3,55.3622322858092,5.205957994132141,Cubic,Pm-3m,221.0,m-3m,0.1,1.16.2,mp-1184033,-6.285739848,-1.01810317475,,,
40.0,3.0,GaFeO3,435.6250846546974,5.292871616330619,Triclinic,P1,1.0,1,0.1,1.16.2,mp-861324,-2.575484098,2.6921525752499997,,,
40.0,3.0,GaFeO3,436.720592442893,5.279594518392152,Orthorhombic,Pna2_1,33.0,mm2,0.1,1.16.2,mp-649086,-7.22065485375,-1.9530181804999998,,,['icsd-35079']
5.0,3.0,GaFeO3,54.210064246236215,5.316604208992787,Cubic,Pm-3m,221.0,m-3m,0.1,1.16.2,mp-1184032,-6.315184128,-1.0475474547499999,,,
40.0,3.0,GaFeO3,436.14425734795844,5.286571144947953,Triclinic,P1,1.0,1,0.1,1.16.2,mp-868005,-7.2197755185000005,-1.9521388452500006,,,
20.0,3.0,FeGeO3,225.7841303047727,5.1918130437777075,Monoclinic,C2/c,15.0,2/m,0.1,1.16.2,mp-22334,-7.5041170070000005,-1.9174939672500002,,,"['icsd-190066', 'icsd-190068', 'icsd-190069', 'icsd-89791', 'icsd-89789', 'icsd-89788', 'icsd-190071', 'icsd-89787', 'icsd-190067', 'icsd-190070', 'icsd-89790']"
20.0,3.0,FeGeS3,353.95859274177735,4.2161984495838185,Monoclinic,C2/c,15.0,2/m,0.1,1.16.2,mp-1096837,-5.642962374000001,-0.5424826408750001,,,
5.0,3.0,FeAsO3,54.84869713950589,5.412087243894191,Cubic,Pm-3m,221.0,m-3m,0.1,1.16.2,mp-1184215,-6.48276029,-0.8889191402500003,,,
5.0,3.0,RbFeO3,66.20594225067894,4.74818876599991,Cubic,Pm-3m,221.0,m-3m,0.1,1.16.2,mp-975322,-6.023394786,-1.1652705027500005,,,
5.0,3.0,RbFeF3,75.18858462943221,4.379630216254737,Cubic,Pm-3m,221.0,m-3m,0.1,1.16.2,mp-554465,-5.528833986,-2.491835549,,,['icsd-49586']
10.0,3.0,RbFeCl3,247.76650425325687,3.319808711307963,Hexagonal,P6_3/mmc,194.0,6/mmm,0.1,1.16.2,mp-1206560,-4.515008522,-1.5157754694999994,,,
5.0,3.0,RbFeCl3,119.83206666721149,3.432042115548971,Cubic,Pm-3m,221.0,m-3m,0.1,1.16.2,mp-1206518,-4.547405425999999,-1.5481723734999995,,,
5.0,3.0,SrFeO3,56.12970212480508,5.664240346569506,Cubic,Pm-3m,221.0,m-3m,0.1,1.16.2,mp-510624,-7.22424936,-2.2243332005833336,,,"['icsd-92335', 'icsd-91062', 'icsd-163228']"
5.0,3.0,YFeO3,58.55670870199426,5.465937800635578,Cubic,Pm-3m,221.0,m-3m,0.1,1.16.2,mp-1416093,-8.454524802,-2.4992131105833337,,,
30.0,3.0,YFeO3,376.5719109281056,5.099700507977772,Hexagonal,P6_3cm,185.0,6mm,0.1,1.16.2,mp-1376289,-8.781297638666667,-2.825985947249999,,,
20.0,3.0,YFeO3,252.68252178655933,5.066710990725307,Hexagonal,P6_3/mmc,194.0,mmm,0.1,1.16.2,mp-1275986,-8.786369046999999,-2.831057355583333,,,
5.0,3.0,NbFeO3,64.17497521827609,5.090930893481664,Cubic,Pm-3m,221.0,m-3m,0.1,1.16.2,mp-1186220,-8.593945928,-1.9116674512499998,,,
5.0,3.0,FeRhO3,59.247936856376974,5.794535835922729,Cubic,Pm-3m,221.0,m-3m,0.1,1.16.2,mp-1184349,-6.499841534000001,-0.3649624912500009,,,
5.0,3.0,FeRhO3,53.58574568537138,6.4068212344105975,Cubic,Pm-3m,221.0,m-3m,0.1,1.16.2,mp-973648,-6.602590334,-0.46771129125,,,
5.0,3.0,FeAgO3,57.61912852121193,6.101360078973732,Cubic,Pm-3m,221.0,m-3m,0.1,1.16.2,mp-1184234,-5.926390778,-0.6978621085833332,,,
20.0,3.0,CdFeO3,224.18182162147863,6.407273253808278,Orthorhombic,Pnma,62.0,mmm,0.1,1.16.2,mp-776476,-6.170801069,-1.3242056482499998,,,
20.0,3.0,CdFeO3,227.15223465874132,6.323486941800345,Monoclinic,P2_1/c,14.0,2/m,0.1,1.16.2,mp-1290304,-6.1633916635,-1.3167962427499993,,,
20.0,3.0,CdFeO3,225.92598167740076,6.357808778789962,Monoclinic,P2_1/m,11.0,2/m,0.1,1.16.2,mp-1639105,-6.156007203,-1.3094117822499995,,,
10.0,3.0,InFeO3,123.56429457364851,5.877028897425036,Hexagonal,P6_3/mmc,194.0,6/mmm,0.1,1.16.2,mp-21094,-7.017711596000001,-1.8053573812500006,,,"['icsd-71010', 'icsd-80469']"
20.0,3.0,InFeBr3,523.7674680696949,5.2041698730727495,Orthorhombic,Pnma,62.0,mmm,0.1,1.16.2,mp-617426,-3.955092827,-0.7789348409999999,,,['icsd-75469']
20.0,3.0,FeSnO3,233.75152028372537,6.323950878236458,Orthorhombic,Pnma,62.0,mmm,0.1,1.16.2,mp-1178214,-7.288322943500001,-1.8243911037500005,,,
20.0,3.0,FeSnO3,235.9626720863631,6.264690592443936,Triclinic,P-1,2.0,-1,0.1,1.16.2,mp-1178212,-7.323507478000001,-1.8595756382500006,,,
5.0,3.0,FeSnO3,65.24543243440456,5.664124969489379,Cubic,Pm-3m,221.0,m-3m,0.1,1.16.2,mp-1207083,-6.546368164,-1.0824363242500006,,,
5.0,3.0,CsFeF3,80.16167060494224,5.090590905712118,Cubic,Pm-3m,221.0,m-3m,0.1,1.16.2,mp-558694,-5.459423128,-2.4394510310862074,,,['icsd-49583']
30.0,3.0,CsFeF3,510.4873134739285,4.796243831305913,Hexagonal,P6_3/mmc,194.0,6/mmm,0.1,1.16.2,mp-555302,-5.7653030376666665,-2.745330940752873,,,"['icsd-410387', 'icsd-67169']"
10.0,3.0,CsFeCl3,284.91422517930204,3.4399179156075586,Hexagonal,P6_3/mmc,194.0,6/mmm,0.1,1.16.2,mp-29400,-4.6299925129999995,-1.6477858005862067,,,['icsd-300249']
10.0,3.0,CsFeBr3,309.0984456395667,4.603573068632081,Hexagonal,P6_3/mmc,194.0,6/mmm,0.1,1.16.2,mp-1079847,-4.103058309,-1.298156594586207,,,['icsd-174041']
5.0,3.0,BaFeO3,61.70323615127433,6.490300408521839,Cubic,Pm-3m,221.0,m-3m,0.1,1.16.2,mp-19035,-7.18999273,-2.14418027325,,,"['icsd-28917', 'icsd-29096', 'icsd-28918', 'icsd-262131', 'icsd-262132']"
20.0,3.0,BaFeO3,415.52427401475444,3.855106080137357,Trigonal,R3m,160.0,3m,0.1,1.16.2,mp-705845,-6.7358719659999995,-1.690059509249999,,,
30.0,3.0,BaFeO3,377.74301687333326,6.361031509429974,Hexagonal,P6_3/mmc,194.0,6/mmm,0.1,1.16.2,mp-1192651,-7.196856963333333,-2.1510445065833323,,,['icsd-50869']
10.0,3.0,LaFeO3,115.45061726760383,6.982962229917882,Trigonal,R-3c,167.0,-3m,0.1,1.16.2,mp-1078634,-8.50290807,-2.8536891802499995,,,"['icsd-236173', 'icsd-236175', 'icsd-236169', 'icsd-236177', 'icsd-236174', 'icsd-236176', 'icsd-236171', 'icsd-236179', 'icsd-236172', 'icsd-236170', 'icsd-236178']"
20.0,3.0,LaFeO3,251.93610168856503,6.399934700878753,Orthorhombic,Pnma,62.0,mmm,0.1,1.16.2,mp-22590,-8.475136048,-2.8259171582500002,,,"['icsd-164083', 'icsd-184304', 'icsd-28255', 'icsd-158825', 'icsd-236168', 'icsd-236164', 'icsd-236154', 'icsd-236155', 'icsd-236165', 'icsd-194609', 'icsd-236159', 'icsd-236167', 'icsd-236162', 'icsd-195543', 'icsd-236157', 'icsd-236158', 'icsd-236161', 'icsd-236156', 'icsd-236160', 'icsd-160736', 'icsd-236163', 'icsd-153536', 'icsd-236153', 'icsd-166178', 'icsd-236166', 'icsd-180178', 'icsd-93611', 'icsd-84941', 'icsd-78062']"
5.0,3.0,LaFeO3,61.96642318273111,6.50503335833213,Cubic,Pm-3m,221.0,m-3m,0.1,1.16.2,mp-552676,-8.372899576,-2.7236806862500003,,,"['icsd-29118', 'icsd-29234']"
20.0,3.0,LaFeO3,302.64898868723105,5.327540021179633,Orthorhombic,Pnma,62.0,mmm,0.1,1.16.2,mp-1181002,-8.3961604495,-2.74694155975,,,
20.0,3.0,LaFeO3,333.39107148475915,4.836286084147502,Orthorhombic,Pmn2_1,31.0,mm2,0.1,1.16.2,mp-605340,-8.2110151845,-2.5617962947500006,,,
20.0,3.0,CeFeO3,245.92482125636718,6.589067019537284,Orthorhombic,Pnma,62.0,mmm,0.1,1.16.2,mp-756062,-8.719293432,-2.870658132250001,,,
5.0,3.0,CeFeO3,60.86443995809566,6.6558368488298125,Cubic,Pm-3m,221.0,m-3m,0.1,1.16.2,mp-864636,-8.422955156,-2.5743198562500007,,,
20.0,3.0,PrFeO3,242.4558416265244,6.705028763705313,Orthorhombic,Pnma,62.0,mmm,0.1,1.16.2,mp-22341,-8.378956726,-2.7607581062499995,,,"['icsd-188202', 'icsd-27274', 'icsd-153963', 'icsd-63645', 'icsd-96492', 'icsd-189725']"
20.0,3.0,NdFeO3,281.6516760553194,5.850562257820356,Orthorhombic,Pnma,62.0,mmm,0.1,1.16.2,mp-601267,-7.7491177030000005,-2.1334707477500006,,,['icsd-153236']