material_id,formula_pretty,icsd,crystal_system,symbol,number,point_group,nsites,nelements,volume,density,energy_per_atom,formation_energy_per_atom
mp-5986,BaTiO3,"['icsd-73644', 'icsd-73645', 'icsd-100802', 'icsd-130020', 'icsd-15453', 'icsd-67520', 'icsd-164385', 'icsd-23759', 'icsd-30617', 'icsd-248395', 'icsd-154345', 'icsd-186457', 'icsd-189381', 'icsd-245944', 'icsd-252558', 'icsd-99737', 'icsd-161418', 'icsd-185407', 'icsd-34637', 'icsd-183932', 'icsd-290023', 'icsd-73642', 'icsd-237105', 'icsd-245946', 'icsd-157806', 'icsd-190835', 'icsd-100803', 'icsd-100801', 'icsd-192889', 'icsd-31153', 'icsd-164387', 'icsd-237108', 'icsd-188644', 'icsd-73643', 'icsd-245945', 'icsd-73646', 'icsd-186459', 'icsd-100800', 'icsd-186458', 'icsd-23758', 'icsd-164388', 'icsd-168763', 'icsd-161340', 'icsd-154343', 'icsd-100799', 'icsd-237107', 'icsd-95436']",Tetragonal,P4mm,99.0,4mm,5.0,3.0,65.32709969254630,5.927475120567490,-8.420699606,-3.4897929879166700
mp-995191,BaTiO3,['icsd-161341'],Orthorhombic,Amm2,38.0,mm2,5.0,3.0,85.45832403722470,4.531153196471880,-6.617292430000000,-1.6863858119166700
mp-644497,BaTiO3,"['icsd-154346', 'icsd-161341']",Orthorhombic,Amm2,38.0,mm2,5.0,3.0,111.54340845946900,3.4715162776032900,-7.709675374,-2.7787687559166700
mp-5777,BaTiO3,"['icsd-73639', 'icsd-73637', 'icsd-237109', 'icsd-73638', 'icsd-31155', 'icsd-73640', 'icsd-73641', 'icsd-237106', 'icsd-186460']",Orthorhombic,Amm2,38.0,mm2,5.0,3.0,65.57310741671340,5.905237274567590,-8.423433802,-3.4925271839166700
mp-504715,BaTiO3,,Cubic,Pm-3m,221.0,m-3m,5.0,3.0,100.48917348467400,3.8533977810600500,-5.346455884,-0.41554926591666700
mp-7073,BaTiS3,"['icsd-616083', 'icsd-14175', 'icsd-616087', 'icsd-18201']",Hexagonal,P6_3/mmc,194.0,6/mmm,10.0,3.0,234.63134508320300,3.9829071196417700,-6.390798784,-1.946035472541670
mp-1079893,BaTiSe3,['icsd-616131'],Hexagonal,P6_3/mmc,194.0,6/mmm,10.0,3.0,264.7893307600210,5.293796120745720,-5.830655041,-1.7702147630729200
mp-1183393,BaTlO3,,Cubic,Pm-3m,221.0,m-3m,5.0,3.0,82.32661349927440,7.8604738046438600,-5.525285378,-1.7009485339166700
mp-1183394,BaTmO3,,Cubic,Pm-3m,221.0,m-3m,5.0,3.0,83.69011508040280,7.02904506046517,-7.442776868,-3.195801568583330
mp-1183212,BAuO3,,Cubic,Pm-3m,221.0,m-3m,5.0,3.0,42.75273889652400,9.934466602061130,-5.260162976,-0.30149499508333300
mp-35730,BaUO3,,Orthorhombic,Pnma,62.0,mmm,20.0,3.0,344.11620657799800,8.171612091758090,-9.097313798,-3.4872235812500000
mp-3601,BaUS3,"['icsd-23289', 'icsd-23424', 'icsd-425333']",Orthorhombic,Pnma,62.0,mmm,20.0,3.0,571.3987910011810,5.4814866273958400,-7.1465245495000000,-2.022577639375000
mp-19150,BaVO3,"['icsd-78167', 'icsd-78168']",Trigonal,P-3m1,164.0,-3m,25.0,3.0,339.45338739887500,5.778850647108950,-7.999602808000000,-2.8310133792500000
mp-1017465,BaVO3,['icsd-191203'],Cubic,Pm-3m,221.0,m-3m,5.0,3.0,63.16295592953190,6.211395266623800,-7.959825548,-2.7912361192500000
mp-555857,BaVS3,['icsd-63230'],Orthorhombic,C222_1,20.0,222,10.0,3.0,225.71113273783400,4.185551231275970,-6.348760177,-1.666314054875
mp-3451,BaVS3,"['icsd-154183', 'icsd-52692', 'icsd-63229', 'icsd-154184', 'icsd-154182', 'icsd-616099']",Orthorhombic,Cmc2_1,36.0,mm2,20.0,3.0,470.98230335403600,4.011724019419860,-6.3525493420000000,-1.6701032198750000
mp-4227,BaVS3,"['icsd-616097', 'icsd-15537', 'icsd-8194', 'icsd-154181', 'icsd-8193', 'icsd-616098', 'icsd-23194', 'icsd-62711']",Hexagonal,P6_3/mmc,194.0,6/mmm,10.0,3.0,226.60022021534000,4.169128823642620,-6.338342442,-1.655896319875
mp-542818,BaVS3,,Monoclinic,Cm,8.0,m,20.0,3.0,449.9130824709810,4.199591193725610,-6.3512208105,-1.668774688375
mp-27363,BaVSe3,['icsd-10486'],Hexagonal,P6_3/mmc,194.0,6/mmm,10.0,3.0,257.4942130766850,5.483429587958490,-5.777679637,-1.47955654840625
mp-676597,BaVSe3,,Orthorhombic,Cmc2_1,36.0,mm2,10.0,3.0,254.6217980166790,5.545288729051740,-5.792741587,-1.4946184984062500
mp-989622,BaWN3,,Monoclinic,P2_1/c,14.0,2/m,20.0,3.0,340.15347524074000,7.0919324591152,-8.8003423065,-0.8230243175000000
mp-989636,BaWN3,,Monoclinic,C2/m,12.0,2/m,10.0,3.0,173.67795895194100,6.944880878085910,-8.790327832,-0.8130098430000000
mp-1183395,BaWO3,,Cubic,Pm-3m,221.0,m-3m,5.0,3.0,72.21768246815920,8.488409149649460,-8.40795793,-2.4645236692500000
mp-1183406,BaYbO3,,Cubic,Pm-3m,221.0,m-3m,5.0,3.0,85.05715820933830,6.996229679403860,-6.1351705260000000,-2.47544065525
mp-1183405,BaZnO3,,Cubic,Pm-3m,221.0,m-3m,5.0,3.0,69.67818890775200,5.975383989729060,-5.448701428,-1.84494449125
mp-1019544,BaZrO3,['icsd-190881'],Tetragonal,I4/mcm,140.0,4/mmm,10.0,3.0,149.38125101812400,6.1483050557832300,-8.701104963,-3.63975662225
mp-3834,BaZrO3,"['icsd-97461', 'icsd-97459', 'icsd-27048', 'icsd-90049', 'icsd-43136', 'icsd-290002', 'icsd-97462', 'icsd-97460']",Cubic,Pm-3m,221.0,m-3m,5.0,3.0,74.74546324141520,6.143794292287300,-8.701280686,-3.63993234525
mp-540771,BaZrS3,"['icsd-616104', 'icsd-165977', 'icsd-23288']",Orthorhombic,Pnma,62.0,mmm,20.0,3.0,506.0566946992320,4.262395303692850,-6.6834714570000000,-2.1082664228750000
mp-1079300,BaZrSe3,['icsd-616136'],Hexagonal,P6_3/mmc,194.0,6/mmm,10.0,3.0,294.58920587065900,5.247078595581920,-6.062030293,-1.8711482924062500
mp-998427,BaZrSe3,,Orthorhombic,Pnma,62.0,mmm,20.0,3.0,561.8133477504390,5.5026557229467400,-6.1113449565,-1.9204629559062500
mp-998350,BaZrSe3,,Triclinic,P1,1.0,1,5.0,3.0,148.68645536701600,5.197960744971480,-6.033841046,-1.8429590454062500
mp-1183417,BeAgO3,,Cubic,Pm-3m,221.0,m-3m,5.0,3.0,45.43780109045,6.0255408511428900,-5.0630988960000000,-0.780691895583334
mp-1183414,BeAuO3,,Cubic,Pm-3m,221.0,m-3m,5.0,3.0,45.53696457156540,9.261457216557640,-4.999525536,-0.6288533362500000
mp-1183403,BeBiO3,,Cubic,Pm-3m,221.0,m-3m,5.0,3.0,49.584527008863700,8.907780541851860,-6.126205226,-1.6422116002500000
mp-1183422,BeBO3,,Cubic,Pm-3m,221.0,m-3m,5.0,3.0,34.79914295160880,3.2362881614185100,-6.053136558,-1.0013624040833300
mp-1183418,BeCdO3,,Cubic,Pm-3m,221.0,m-3m,5.0,3.0,47.24786719250150,5.954360275822380,-5.1720559260000000,-1.2715821742500000
mp-1183426,BeCuO3,,Cubic,Pm-3m,221.0,m-3m,5.0,3.0,41.487602710206500,4.825262704072900,-5.358760686,-0.8230235522500000
mp-984722,BeGaO3,,Cubic,Pm-3m,221.0,m-3m,5.0,3.0,41.51241513065130,5.069464910461350,-5.614557182,-1.29304217775
mp-1183415,BeGeO3,,Cubic,Pm-3m,221.0,m-3m,5.0,3.0,43.05488498849880,5.000350700463460,-5.829437096,-1.18893572525
mp-1183436,BeInO3,,Cubic,Pm-3m,221.0,m-3m,5.0,3.0,44.986705688153200,6.342490224546630,-5.796295332,-1.5300627862500000
mp-1183431,BeOsO3,,Cubic,Pm-3m,221.0,m-3m,5.0,3.0,40.61822295294160,10.107589237169600,-6.70831386,-0.7469445742500000
mp-1183499,BePbO3,,Cubic,Pm-3m,221.0,m-3m,5.0,3.0,48.72835290398650,9.003621812885390,-5.851263928,-1.39283871425
mp-1183447,BePdO3,,Cubic,Pm-3m,221.0,m-3m,5.0,3.0,42.81809943999380,6.33803315723255,-5.602706964,-0.8508348022500000
mp-1183451,BePtO3,,Cubic,Pm-3m,221.0,m-3m,5.0,3.0,42.973749466219300,9.741122777998370,-5.646703856,-0.71658139225
mp-1183476,BeReO3,,Cubic,Pm-3m,221.0,m-3m,5.0,3.0,41.22133224745680,9.797644628821830,-7.214683852,-1.0098826152500000
mp-1183443,BeSbO3,,Cubic,Pm-3m,221.0,m-3m,5.0,3.0,45.78170326605360,6.484145020487230,-6.06812796,-1.5264319122500000
mp-1183445,BeSiO3,,Cubic,Pm-3m,221.0,m-3m,5.0,3.0,42.049366115138900,3.3604558052281800,-6.761510964,-1.9605515582500000
mp-1183449,BeVO3,,Cubic,Pm-3m,221.0,m-3m,5.0,3.0,40.316453089377000,4.446281942922850,-7.243470252,-1.7107932382500000
mp-984552,BeZnO3,,Cubic,Pm-3m,221.0,m-3m,5.0,3.0,42.991823945284200,4.728391300139920,-5.16099608,-1.1931515582500000
mp-31250,BiBO3,['icsd-413621'],Monoclinic,P2_1/c,14.0,2/m,20.0,3.0,259.34169065972600,6.858520761517380,-7.3731285690000000,-2.301139162083330
mp-1178485,BiCO3,,Triclinic,P-1,2.0,-1,20.0,3.0,310.1507491782460,5.760646941280610,-7.2055585000000000,-1.6237143487500000
mp-1183479,BiMoO3,,Cubic,Pm-3m,221.0,m-3m,5.0,3.0,69.76336218902190,8.400327969313370,-7.32215941,-1.4169183352500000
mp-1183469,BiPtO3,,Cubic,Pm-3m,221.0,m-3m,5.0,3.0,67.45428325640970,11.128538791158800,-5.7157157840000000,-0.7653780672500000
mp-573119,BiRhO3,"['icsd-108996', 'icsd-188150']",Orthorhombic,Pnma,62.0,mmm,20.0,3.0,251.64851803379400,9.498988703250450,-6.5665035535000000,-1.3575309267500000
mp-1183221,BIrO3,,Cubic,Pm-3m,221.0,m-3m,5.0,3.0,39.84966404394990,10.460284216710500,-6.365849548,-0.29427113108333300
mp-755382,BiSbO3,,Trigonal,R-3,148.0,-3,10.0,3.0,166.76267335128600,7.5425780684696900,-6.191114895,-1.62920359425
mp-1227486,BiSbS3,,Orthorhombic,Pnma,62.0,mmm,20.0,3.0,527.799868152903,5.372816125138690,-4.6809081295,-0.6051401353750000
mp-1227508,BiSbSe3,,Orthorhombic,Pnma,62.0,mmm,20.0,3.0,594.3850249237370,6.343065923102980,-4.290410984,-0.5989660234062510
mp-1246423,BMoN3,,Triclinic,P-1,2.0,-1,20.0,3.0,309.5160734435570,3.1925996059924200,-8.935687886,-0.42878255483333300
mp-984553,BOsO3,,Cubic,Pm-3m,221.0,m-3m,5.0,3.0,39.56185275227550,10.45298164634170,-6.774564064000000,-0.22519899708333400
mp-984554,BPbO3,,Cubic,Pm-3m,221.0,m-3m,5.0,3.0,45.34560992453000,9.741156187118830,-6.110985154,-1.0645641590833300
mp-1183242,BPdO3,,Cubic,Pm-3m,221.0,m-3m,5.0,3.0,40.30795288597970,6.806833934712140,-5.897181052,-0.5573131090833330
mp-1183277,BPtO3,,Cubic,Pm-3m,221.0,m-3m,5.0,3.0,40.96458071752930,10.291807458038500,-5.839233442000000,-0.32111519708333300
mp-755829,BSbO3,,Monoclinic,C2/c,15.0,2/m,20.0,3.0,313.2766235360050,3.828465813252710,-7.358162672500000,-2.2284708435833300
mp-753806,BSbO3,,Triclinic,P-1,2.0,-1,10.0,3.0,155.7272770647210,3.85086307904932,-7.357337273000000,-2.2276454440833300
mp-1183211,BSbO3,,Cubic,Pm-3m,221.0,m-3m,5.0,3.0,43.640418944934400,6.870745471143400,-6.391039034,-1.261347205083330
mp-984632,CaBeO3,,Cubic,Pm-3m,221.0,m-3m,5.0,3.0,47.238026636691300,3.4129082585079900,-6.349246122,-2.23223034625
mp-1378965,CaBiO3,,Orthorhombic,Pnma,62.0,mmm,20.0,3.0,289.41061862777900,6.817636362206690,-6.396315561,-2.25908453225
mp-755893,CaBiO3,,Monoclinic,P2_1/c,14.0,2/m,20.0,3.0,289.0372280681900,6.826443674238330,-6.4121261725,-2.27489514375
mp-1178493,CaBiO3,,Orthorhombic,Pnma,62.0,mmm,20.0,3.0,307.5353457063270,6.415836048483470,-6.312575148500000,-2.17534411975
mp-867749,CaBiO3,,Trigonal,R-3,148.0,-3,10.0,3.0,156.56459992332600,6.3012212151781300,-6.391285753,-2.2540547242500000
mp-1189809,CaBO3,['icsd-162409'],Monoclinic,P2_1/c,14.0,2/m,20.0,3.0,265.8473593089520,2.470681810999030,-7.521660023,-2.8166484660833300
mp-1084760,CaBO3,['icsd-180447'],Monoclinic,P2_1/m,11.0,2/m,10.0,3.0,133.29544697205700,2.463790962359140,-7.523356677,-2.8183451200833300
mp-984628,CaBO3,,Cubic,Pm-3m,221.0,m-3m,5.0,3.0,42.13256708502320,3.8973665776244000,-6.72671534,-2.0217037830833300
mp-756365,CaCeO3,,Orthorhombic,Pnma,62.0,mmm,20.0,3.0,301.40837780939600,5.028686535488700,-8.176925261,-3.6211742272500000
mp-1079918,CaCO3,['icsd-186773'],Triclinic,P-1,2.0,-1,10.0,3.0,120.1538154729380,2.766424134776150,-7.887421552000000,-2.67255525075
mp-641635,CaCO3,,Orthorhombic,Pnma,62.0,mmm,20.0,3.0,306.45783959936200,2.169279894711280,-6.5258647435,-1.3109984422500000
mp-553939,CaCO3,"['icsd-27827', 'icsd-157302', 'icsd-157301']",Orthorhombic,Pnma,62.0,mmm,20.0,3.0,248.79393564712500,2.672062035155290,-7.890069259000000,-2.675202957750000
mp-556235,CaCO3,['icsd-150'],Monoclinic,P2_1/c,14.0,2/m,20.0,3.0,244.95879367681000,2.713896570280520,-7.901712144000000,-2.6868458427500000
mp-4626,CaCO3,"['icsd-169907', 'icsd-15194', 'icsd-169908', 'icsd-169897', 'icsd-169894', 'icsd-169911', 'icsd-34308', 'icsd-280991', 'icsd-169910', 'icsd-169899', 'icsd-169902', 'icsd-157992', 'icsd-169912', 'icsd-52152', 'icsd-169904', 'icsd-56090', 'icsd-169905', 'icsd-169895', 'icsd-166085', 'icsd-169903', 'icsd-169900', 'icsd-32100', 'icsd-169896', 'icsd-166086', 'icsd-157996', 'icsd-157997', 'icsd-190072', 'icsd-157993', 'icsd-166087', 'icsd-169898', 'icsd-157994', 'icsd-169893', 'icsd-170225', 'icsd-169901', 'icsd-169892', 'icsd-169890', 'icsd-15198', 'icsd-161817', 'icsd-169906', 'icsd-169909', 'icsd-157995', 'icsd-169891']",Orthorhombic,Pnma,62.0,mmm,20.0,3.0,234.24383173134100,2.8380377195247300,-7.8792835165,-2.6644172152500000
mp-560265,CaCO3,,Hexagonal,P6_522,179.0,622,90.0,3.0,1174.5909952235700,2.546901642574380,-7.8955692510000000,-2.68070294975
mp-1197230,CaCO3,"['icsd-186771', 'icsd-193085', 'icsd-193086', 'icsd-193083', 'icsd-193084']",Triclinic,P-1,2.0,-1,50.0,3.0,590.851968969494,2.8128569630520800,-7.8792393582000000,-2.6643730569500000
mp-3205,CaCO3,"['icsd-161621', 'icsd-161620', 'icsd-161818', 'icsd-161819']",Orthorhombic,Pmmn,59.0,mmm,10.0,3.0,110.76982689463700,3.000784819551510,-7.734772092,-2.5199057907500000
mp-1194399,CaCO3,['icsd-424575'],Monoclinic,C2/c,15.0,2/m,30.0,3.0,376.2607498876410,2.6502611429098200,-7.895032499333330,-2.680166198083330
mp-1197939,CaCO3,['icsd-424574'],Triclinic,P-1,2.0,-1,90.0,3.0,1170.318280569610,2.5562001250052700,-7.895481444,-2.6806151427500000
mp-561412,CaCO3,['icsd-83607'],Monoclinic,C2,5.0,2,15.0,3.0,191.62792800071700,2.601889128148360,-7.8964401466666700,-2.6815738454166700
mp-1188902,CaCO3,['icsd-186772'],Triclinic,P-1,2.0,-1,20.0,3.0,233.29606311051300,2.8495672886886000,-7.883719112,-2.6688528107500000
mp-548403,CaCO3,['icsd-161820'],Orthorhombic,C222_1,20.0,222,10.0,3.0,104.7489959704010,3.1732658812663000,-7.593784954,-2.378918652750000
mp-3953,CaCO3,"['icsd-180348', 'icsd-18164', 'icsd-191858', 'icsd-166365', 'icsd-169933', 'icsd-169917', 'icsd-40543', 'icsd-191865', 'icsd-169918', 'icsd-52151', 'icsd-191862', 'icsd-191857', 'icsd-40546', 'icsd-191861', 'icsd-73446', 'icsd-28827', 'icsd-79674', 'icsd-169931', 'icsd-191856', 'icsd-191859', 'icsd-169932', 'icsd-169922', 'icsd-191854', 'icsd-164935', 'icsd-158258', 'icsd-18165', 'icsd-169920', 'icsd-169927', 'icsd-191866', 'icsd-79673', 'icsd-158472', 'icsd-423568', 'icsd-191868', 'icsd-166364', 'icsd-191867', 'icsd-40112', 'icsd-20179', 'icsd-169916', 'icsd-40115', 'icsd-40116', 'icsd-423567', 'icsd-191864', 'icsd-172232', 'icsd-169929', 'icsd-169925', 'icsd-169913', 'icsd-180349', 'icsd-40107', 'icsd-40544', 'icsd-40113', 'icsd-80869', 'icsd-40545', 'icsd-190276', 'icsd-169930', 'icsd-191852', 'icsd-37241', 'icsd-40548', 'icsd-169928', 'icsd-169915', 'icsd-169921', 'icsd-169919', 'icsd-169924', 'icsd-190275', 'icsd-191863', 'icsd-191855', 'icsd-158257', 'icsd-169926', 'icsd-191860', 'icsd-169914', 'icsd-18166', 'icsd-169923', 'icsd-191853', 'icsd-40114', 'icsd-16710']",Trigonal,R-3c,167.0,-3m,10.0,3.0,122.9495072208520,2.7035197010810000,-7.9036375660000000,-2.688771264750000
mp-2717324,CaCO3,,Trigonal,P321,150.0,32,15.0,3.0,185.5030024074620,2.687798127490620,-7.902225894,-2.68735959275
mp-696740,CaCO3,,Monoclinic,C2/c,15.0,2/m,10.0,3.0,118.88023144734000,2.796061304414720,-6.030930786000000,-0.8160644847500010
mp-1099934,CaCoO3,,Cubic,Pm-3m,221.0,m-3m,5.0,3.0,53.30553410603660,4.579540335701960,-6.677725452,-1.88692869025
mp-1368304,CaCoO3,,Orthorhombic,Pnma,62.0,mmm,20.0,3.0,214.85258326942400,4.544787683536710,-6.772877062000000,-1.9820803002500000
mp-1399298,CaCoO3,,Monoclinic,Cm,8.0,m,5.0,3.0,97.80442736496280,2.495948804483070,-6.354939556,-1.5641427942500000
mp-20772,CaCrO3,['icsd-245840'],Orthorhombic,Pnma,62.0,mmm,20.0,3.0,220.31739524847300,4.222917142537830,-7.9187860535,-2.6190433567500000
mp-1099873,CaCuO3,,Cubic,Pm-3m,221.0,m-3m,5.0,3.0,55.02966228172410,4.575252255317860,-5.890185774,-1.70121123725
mp-19115,CaFeO3,"['icsd-92353', 'icsd-92344', 'icsd-92348', 'icsd-92338', 'icsd-92350', 'icsd-92337', 'icsd-92330', 'icsd-92339', 'icsd-92342', 'icsd-92341', 'icsd-92352', 'icsd-92351', 'icsd-92343', 'icsd-92340', 'icsd-92346', 'icsd-92336', 'icsd-92349', 'icsd-248483', 'icsd-92347']",Orthorhombic,Pnma,62.0,mmm,20.0,3.0,210.95958245175600,4.53142298319831,-7.2924198515,-2.22928240675
mp-1272846,CaFeO3,"['icsd-92345', 'icsd-248484']",Monoclinic,P2_1/c,14.0,2/m,20.0,3.0,226.6302730514850,4.218090935409320,-7.2877994345,-2.2246619897500000
mp-1278982,CaFeO3,,Orthorhombic,Pmma,51.0,mmm,20.0,3.0,227.3429585065410,4.204867864514490,-7.239529130000000,-2.1763916852500000
mp-1001571,CaFeO3,,Cubic,Pm-3m,221.0,m-3m,5.0,3.0,56.47327359803380,4.231856237217890,-7.2402726,-2.1771351552500000
mp-554549,CaGeO3,"['icsd-171080', 'icsd-171081']",Tetragonal,I4_1/a,88.0,4/m,80.0,3.0,969.4508785919640,4.40456402078852,-7.030077613625000,-2.736338839875000
mp-1016884,CaGeO3,,Cubic,Pm-3m,221.0,m-3m,5.0,3.0,54.1490255087543,4.928537978810960,-6.873712094,-2.5799733202500000
mp-776074,CaGeO3,,Monoclinic,C2/c,15.0,2/m,30.0,3.0,438.5384044777960,3.6513408086111400,-7.0144126663333300,-2.720673892583330
mp-776086,CaGeO3,,Triclinic,P-1,2.0,-1,30.0,3.0,418.57112569596700,3.825522292658280,-7.023572567666670,-2.7298337939166700
mp-17761,CaGeO3,['icsd-403086'],Triclinic,P-1,2.0,-1,30.0,3.0,436.38233200714000,3.669381308468730,-7.044484095333330,-2.750745321583330
mp-8130,CaGeO3,"['icsd-194917', 'icsd-194908', 'icsd-194916', 'icsd-194909', 'icsd-194903', 'icsd-194910', 'icsd-194912', 'icsd-194914', 'icsd-194918', 'icsd-194915', 'icsd-194911', 'icsd-194913', 'icsd-31338', 'icsd-194906', 'icsd-194907', 'icsd-194904', 'icsd-194905', 'icsd-194902', 'icsd-194919']",Orthorhombic,Pnma,62.0,mmm,20.0,3.0,216.4272088717930,4.932384058856300,-6.9371081895,-2.64336941575
mp-1207169,CaH3Pd,,Cubic,Pm-3m,221.0,m-3m,5.0,3.0,50.92933491625870,4.875124009127210,-3.987623668,-0.514891703
mp-754853,CaHfO3,,Orthorhombic,Pnma,62.0,mmm,20.0,3.0,252.29133819395100,7.017975204441200,-9.182272448,-3.8217014392500000
mp-1016873,CaHfO3,,Cubic,Pm-3m,221.0,m-3m,5.0,3.0,69.17836138914770,6.398584471307640,-9.02795571,-3.6673847012500000
mp-1190098,CaHfS3,['icsd-619354'],Orthorhombic,Pnma,62.0,mmm,20.0,3.0,441.8930364734300,4.7312468410136900,-6.944673754,-2.0702460518750000
mp-1183539,CaHoO3,,Cubic,Pm-3m,221.0,m-3m,5.0,3.0,80.13702098788320,5.242610785694640,-7.185042324000000,-2.8994273472500000
mp-28534,CaInBr3,['icsd-54138'],Orthorhombic,Cmcm,63.0,mmm,10.0,3.0,327.873726444337,3.9970387813561900,-3.759740196,-1.8764664760000000
mp-1206105,CaInI3,,Orthorhombic,Cmcm,63.0,mmm,10.0,3.0,409.7901296905660,4.3407602345872300,-3.243666941,-1.4081904090000000
mp-1183543,CaInO3,,Cubic,Pm-3m,221.0,m-3m,5.0,3.0,72.13462947097260,4.6706241919788300,-5.9006614400000000,-1.9811914912500000
mp-1016872,CaIrO3,,Cubic,Pm-3m,221.0,m-3m,5.0,3.0,61.792674200619100,7.532249004003520,-6.932980098,-1.7961600592500000
mp-1079054,CaIrO3,['icsd-159026'],Orthorhombic,Cmcm,63.0,mmm,10.0,3.0,128.73544915681200,7.230919094170890,-6.91619666,-1.7793766212500000
mp-20198,CaIrO3,['icsd-159026'],Orthorhombic,Cmcm,63.0,mmm,10.0,3.0,113.08204138316100,8.231860744806730,-6.585585473,-1.4487654342500000
mp-555735,CaIrO3,"['icsd-182245', 'icsd-159433']",Orthorhombic,Pnma,62.0,mmm,20.0,3.0,228.6900073487560,8.140938278820860,-7.215037713000000,-2.07821767425
mp-4243,CaIrO3,"['icsd-159031', 'icsd-159035', 'icsd-420479', 'icsd-159034', 'icsd-159432', 'icsd-420478', 'icsd-159029', 'icsd-159037', 'icsd-159038', 'icsd-160816', 'icsd-159033', 'icsd-182246', 'icsd-159030', 'icsd-25524', 'icsd-159036', 'icsd-180015', 'icsd-159028', 'icsd-159027']",Orthorhombic,Cmcm,63.0,mmm,10.0,3.0,114.21872186793500,8.14993901333421,-7.239532932,-2.1027128932500000
mp-1183562,CaLaO3,,Cubic,Pm-3m,221.0,m-3m,5.0,3.0,91.41240612908160,4.123203254325020,-7.024558736,-2.6682241122500000
mp-1183532,CaMgO3,,Cubic,Pm-3m,221.0,m-3m,5.0,3.0,61.40444465533580,3.0390857534638100,-5.924580274,-2.23539106125
mp-1188497,CaMnO3,['icsd-168906'],Hexagonal,P6_3/mmc,194.0,6/mmm,20.0,3.0,231.9933662023390,4.094612613977580,-7.618064101500000,-2.4165278403362100