material_id,formula_pretty,icsd,crystal_system,symbol,number,point_group,nsites,nelements,volume,density,energy_per_atom,formation_energy_per_atom
mp-22364,CrPbO3,"['icsd-194155', 'icsd-160196']",Cubic,Pm-3m,221.0,m-3m,5.0,3.0,60.100719885198200,8.487554511181020,-7.3799187,-1.7387665652500000
mp-1101069,CrPSe3,['icsd-626521'],Monoclinic,C2/m,12.0,2/m,10.0,3.0,233.48128344501600,4.549599723463030,-5.655635716,-0.5448188340729160
mp-1183719,CrRhO3,,Cubic,Pm-3m,221.0,m-3m,5.0,3.0,60.0951043992927,5.606497365687110,-7.131647658,-0.7601633632500000
mp-9130,CrSbS3,['icsd-74601'],Orthorhombic,Pnma,62.0,mmm,20.0,3.0,416.3982854873650,4.306111367360510,-6.024536980500000,-0.7862573183750000
mp-15236,CrSbSe3,['icsd-84866'],Orthorhombic,Pnma,62.0,mmm,20.0,3.0,482.6282120889450,5.651366987063740,-5.540308449000000,-0.6863518204062490
mp-1183695,CrTcO3,,Cubic,Pm-3m,221.0,m-3m,5.0,3.0,58.98279651663670,5.5741214308376400,-8.371840446,-1.4010899362500000
mp-1226283,CrWO3,,Trigonal,R3,146.0,3,5.0,3.0,113.26051194329800,4.161361585819260,-8.879733188,-1.3894844212500000
mp-1183923,CsAcO3,,Cubic,Pm-3m,221.0,m-3m,5.0,3.0,115.52101286493200,5.863348429784880,-6.161423332,-2.190094629336210
mp-998344,CsAgBr3,,Monoclinic,Pm,6.0,m,5.0,3.0,165.98610336405300,4.806819244203730,-2.9693970060000000,-1.2919883329195400
mp-1399321,CsAgBr3,,Orthorhombic,Amm2,38.0,mm2,5.0,3.0,165.98617894748100,4.806817055371610,-2.9694168000000000,-1.2920081269195400
mp-1946459,CsAgBr3,,Cubic,Pm-3m,221.0,m-3m,5.0,3.0,159.16633079233900,5.012776206807700,-2.96691858,-1.2895099069195400
mp-28610,CsAgCl3,['icsd-66067'],Tetragonal,I4/mmm,139.0,4/mmm,10.0,3.0,278.6981311044580,4.136571188964020,-3.3036615320000000,-1.4489478609195400
mp-561920,CsAgF3,['icsd-23154'],Tetragonal,I4/mcm,140.0,4/mmm,10.0,3.0,174.82153892359400,5.6567037492314700,-4.0251278050000000,-2.13264874941954
mp-1183911,CsAsO3,,Cubic,Pm-3m,221.0,m-3m,5.0,3.0,67.69726825568860,6.275110295414900,-5.210400732,-1.131483349836210
mp-1178465,CsAsO3,,Trigonal,P-31m,162.0,-3m,10.0,3.0,219.97981958535800,3.862243598557910,-5.872535957,-1.793618574836210
mp-776093,CsAsO3,,Orthorhombic,Pbcm,57.0,mmm,20.0,3.0,380.39607043350000,4.467005398017110,-5.9730525145,-1.894135132336210
mp-569548,CsAuBr3,"['icsd-170696', 'icsd-186067']",Tetragonal,I4/mmm,139.0,4/mmm,10.0,3.0,349.55602409760200,5.411530359731260,-3.037363019,-1.271689146586210
mp-1112987,CsAuBr3,,Cubic,Pm-3m,221.0,m-3m,5.0,3.0,163.8954261451430,5.770853651388420,-2.98430326,-1.218629387586210
mp-23484,CsAuCl3,"['icsd-56467', 'icsd-37453', 'icsd-417365', 'icsd-56469', 'icsd-26161', 'icsd-417371', 'icsd-417366', 'icsd-56471', 'icsd-56468', 'icsd-417368', 'icsd-37452', 'icsd-417370', 'icsd-417364', 'icsd-37451', 'icsd-56470', 'icsd-417369', 'icsd-417363', 'icsd-37450', 'icsd-417367', 'icsd-6061']",Tetragonal,I4/mmm,139.0,4/mmm,10.0,3.0,305.9137536017620,4.735835795145370,-3.35698054,-1.414001669586210
mp-23026,CsAuCl3,"['icsd-56472', 'icsd-417373', 'icsd-27839', 'icsd-417372']",Cubic,Pm-3m,221.0,m-3m,5.0,3.0,141.1630216413000,5.131504297973440,-3.2863371960000000,-1.3433583255862100
mp-1112985,CsAuF3,,Cubic,Pm-3m,221.0,m-3m,5.0,3.0,95.2985201030349,6.741008665591430,-3.90132574,-1.9205814850862100
mp-28453,CsAuI3,"['icsd-59269', 'icsd-186066']",Tetragonal,I4/mmm,139.0,4/mmm,10.0,3.0,431.2946941860060,5.471687382536460,-2.696688998,-0.9788123135862070
mp-1185548,CsAuO3,,Cubic,Pm-3m,221.0,m-3m,5.0,3.0,78.95204306569010,7.94746075648926,-4.264953696,-0.4630835948362070
mp-567913,CsAuSe3,['icsd-84002'],Monoclinic,C2/c,15.0,2/m,10.0,3.0,330.10821328837400,5.701850689530210,-3.7066925500000000,-0.7752887889924570
mp-1096925,CsBaI3,,Orthorhombic,Pnma,62.0,mmm,20.0,3.0,1033.6136394682000,4.183075736046580,-3.4022673875000000,-1.9553721150862100
mp-1183934,CsBaO3,,Cubic,Pm-3m,221.0,m-3m,5.0,3.0,127.32547365151000,4.150264786101320,-4.842209254,-1.311320564836210
mp-1017555,CsBeF3,"['icsd-290358', 'icsd-290357']",Cubic,Pm-3m,221.0,m-3m,5.0,3.0,65.71139997579610,5.026563847397930,-4.819322582,-2.745472154086210
mp-12262,CsBeF3,['icsd-9870'],Orthorhombic,Pnma,62.0,mmm,20.0,3.0,364.0706021130140,3.6289944374878200,-5.4818748875,-3.408024459586210
mp-24341,CsBeH3,['icsd-173446'],Monoclinic,P2_1/m,11.0,2/m,10.0,3.0,221.48042743971300,2.1733834393674900,-3.170810747,-0.20821207258620700
mp-983578,CsBiO3,,Cubic,Pm-3m,221.0,m-3m,5.0,3.0,86.20837029442200,7.50991693049256,-5.2905648560000000,-1.375373328836210
mp-28873,CsBrO3,['icsd-74769'],Trigonal,R3m,160,3m,5,3,99.7761200581325,4.34053052569931,-4.536734756,-1.07903538883621
mp-573358,CsBSe3,['icsd-411342'],Monoclinic,P2_1/c,14.0,2/m,20.0,3.0,593.0100300717640,4.262965177252170,-4.4690228445,-0.8565171293257910
mp-30056,CsCaBr3,['icsd-77242'],Cubic,Pm-3m,221.0,m-3m,5.0,3.0,186.03893347623900,3.683620990955730,-3.8689126700000000,-2.356895221586210
mp-1206863,CsCaCl3,,Tetragonal,I4/mcm,140.0,4/mmm,10.0,3.0,317.0413345134330,2.926173995902910,-4.331365133,-2.642042686586210
mp-1097916,CsCaCl3,,Cubic,Pm-3m,221.0,m-3m,5.0,3.0,159.04216959735600,2.916579014950090,-4.331671878,-2.6423494315862100
mp-1096927,CsCaCl3,,Tetragonal,P4mm,99.0,4mm,5.0,3.0,163.02207990762000,2.8453756362490100,-4.3313803880000000,-2.6420579415862100
mp-7104,CsCaF3,"['icsd-290449', 'icsd-290341', 'icsd-290342', 'icsd-247961', 'icsd-290340', 'icsd-45309', 'icsd-290448']",Cubic,Pm-3m,221.0,m-3m,5.0,3.0,92.37795928990890,4.133979088092320,-5.4499464,-3.722858569086210
mp-644203,CsCaH3,"['icsd-168718', 'icsd-261359', 'icsd-88051']",Cubic,Pm-3m,221.0,m-3m,5.0,3.0,98.68709087228880,2.961551996439550,-3.09976169,-0.4839256125862070
mp-1213688,CsCaI3,,Orthorhombic,Pnma,62.0,mmm,20.0,3.0,925.5257116270690,3.9736779159702200,-3.3278869590000000,-1.8636666985862100
mp-998333,CsCaI3,,Monoclinic,Cm,8.0,m,5.0,3.0,242.2223781078570,3.795831241609600,-3.317324766,-1.853104505586210
mp-998428,CsCaI3,,Orthorhombic,Pnma,62.0,mmm,20.0,3.0,901.9107359491210,4.077721812552600,-3.3381274475,-1.8739071870862100
mp-984240,CsCaO3,,Cubic,Pm-3m,221.0,m-3m,5.0,3.0,102.8247443617050,3.568680556996520,-5.034596532,-1.4863828548362100
mp-541899,CsCdBr3,"['icsd-281176', 'icsd-87261', 'icsd-1343', 'icsd-41454', 'icsd-41453']",Hexagonal,P6_3/mmc,194.0,6/mmm,10.0,3.0,351.63652167638900,4.580916049065490,-2.941244357,-1.645768932586210
mp-570231,CsCdBr3,['icsd-24483'],Cubic,Pm-3m,221.0,m-3m,5.0,3.0,169.11875228033400,4.762385495000640,-2.90856913,-1.613093705586210
mp-619015,CsCdCl3,"['icsd-4039', 'icsd-16575']",Hexagonal,P6_3/mmc,194.0,6/mmm,30.0,3.0,896.796766964518,3.907044593531170,-3.3138657456666700,-1.8410853232528700
mp-568544,CsCdCl3,['icsd-24484'],Cubic,Pm-3m,221.0,m-3m,5.0,3.0,145.8972327527040,4.002617565982150,-3.306393628,-1.8336132055862100
mp-8399,CsCdF3,"['icsd-49582', 'icsd-290344', 'icsd-290345', 'icsd-290343']",Cubic,Pm-3m,221.0,m-3m,5.0,3.0,90.32609495079800,5.557644493354360,-4.219606678,-2.7090608710862100
mp-1183925,CsCdO3,,Cubic,Pm-3m,221.0,m-3m,5.0,3.0,93.63968780473490,5.201431676083630,-4.033011278,-0.701339624836207
mp-760386,CsClO3,,Trigonal,R3m,160,3m,5,3,109.079427557219,3.29364281463861,-4.671130762,-1.15432972883621
mp-754202,CsClO3,,Orthorhombic,Pmn2_1,31,mm2,10,3,211.655292719559,3.39484704759786,-4.66767155,-1.15087051683621
mp-779389,CsClO3,,Monoclinic,P2_1/m,11,2/m,10,3,236.146502868904,3.04276089998398,-4.674400533,-1.15759949983621
mp-504708,CsCoCl3,['icsd-27511'],Hexagonal,P6_3/mmc,194.0,6/mmm,10.0,3.0,273.03319678961700,3.6271695022286200,-4.267015151,-1.5571491215862100
mp-556943,CsCoF3,"['icsd-410389', 'icsd-15091']",Trigonal,R-3m,166.0,-3m,15.0,3.0,259.2524122553590,4.7814213516825,-5.252632150666670,-2.5050007367528700
mp-27179,CsCrBr3,['icsd-2590'],Hexagonal,P6_3mc,186.0,6mm,10.0,3.0,338.5828863435900,4.164932248951430,-4.544500072,-1.5029931055862100
mp-610955,CsCrCl3,['icsd-10206'],Hexagonal,P6_3mc,186.0,6mm,10.0,3.0,292.300434333001,3.3092631291709500,-4.966531347,-1.7477193825862100
mp-570326,CsCrCl3,['icsd-36132'],Hexagonal,P6_3/mmc,194.0,6/mmm,10.0,3.0,292.36857412596000,3.3084918680833100,-4.966850397,-1.7480384325862100
mp-29616,CsCrCl3,['icsd-41802'],Monoclinic,C2/m,12.0,2/m,10.0,3.0,287.0896014019620,3.3693280608394900,-4.978760327,-1.7599483625862100
mp-1172893,CsCrI3,,Orthorhombic,Cmcm,63.0,mmm,20.0,3.0,1240.645099010200,3.028185068035160,-3.5647090385000000,-0.5709992600862070
mp-580597,CsCrI3,"['icsd-23382', 'icsd-23383']",Orthorhombic,Pbcn,60.0,mmm,20.0,3.0,823.9586842960280,4.559576875827820,-4.0614037855,-1.0676940070862100
mp-27259,CsCrI3,,Hexagonal,P6_3/mmc,194.0,6/mmm,10.0,3.0,408.7614175727210,4.595471590570690,-4.058775547,-1.0650657685862100
mp-27336,CsCuBr3,['icsd-10184'],Orthorhombic,C222_1,20.0,222,20.0,3.0,627.3825242091170,4.617702427819940,-3.2331064135,-1.3023676070862100
mp-23032,CsCuCl3,,Hexagonal,P6_122,178.0,622,30.0,3.0,835.3747005276380,3.611518889694560,-3.5974058523333300,-1.4893620479195400
mp-675287,CsCuCl3,,Hexagonal,P6_3/mmc,194.0,6/mmm,10.0,3.0,278.1043517809720,3.6161144687931100,-3.54818371,-1.4401399055862100
mp-2456411,CsCuCl3,,Monoclinic,C2/c,15.0,2/m,10.0,3.0,301.3253520050110,3.3374462640394600,-3.594660516,-1.4866167115862100
mp-567366,CsCuCl3,['icsd-2064'],Hexagonal,P6_3mc,186.0,6mm,10.0,3.0,279.17535054153300,3.6022419900566700,-3.56486152,-1.456817715586210
mp-1079040,CsDyBr3,['icsd-300285'],Tetragonal,P4/mbm,127.0,4/mmm,10.0,3.0,368.3057089588310,4.8252493104782200,-4.0129571120000000,-1.9807022715862100
mp-505418,CsDyI3,['icsd-300286'],Orthorhombic,Pnma,62.0,mmm,20.0,3.0,891.9634533119260,5.034833118694860,-3.491564266,-1.5071066135862100
mp-638685,CsEuBr3,['icsd-172982'],Orthorhombic,Pnma,62.0,mmm,20.0,3.0,808.6999868931000,4.308584189992560,-5.513263593,-2.350965760586210
mp-1068377,CsEuCl3,['icsd-31463'],Cubic,Pm-3m,221.0,m-3m,5.0,3.0,178.75229994418400,3.6343595497694000,-5.944024254,-2.6044214235862100
mp-1213256,CsEuCl3,,Orthorhombic,Pnma,62.0,mmm,20.0,3.0,700.7294922288150,3.7084217835846600,-7.0566168775,-3.7170140470862100
mp-8396,CsEuF3,['icsd-49577'],Cubic,Pm-3m,221.0,m-3m,5.0,3.0,108.52345886680300,5.230939299561770,-6.9669941280000000,-3.589625913086210
mp-1185550,CsEuO3,,Cubic,Pm-3m,221.0,m-3m,5.0,3.0,97.4962479003604,5.669343712101110,-7.175191304,-1.9766972428362100
mp-1079847,CsFeBr3,['icsd-174041'],Hexagonal,P6_3/mmc,194.0,6/mmm,10.0,3.0,309.0984456395670,4.603573068632080,-4.103058309,-1.298156594586210
mp-29400,CsFeCl3,['icsd-300249'],Hexagonal,P6_3/mmc,194.0,6/mmm,10.0,3.0,284.91422517930200,3.4399179156075600,-4.6299925130000000,-1.6477858005862100
mp-558694,CsFeF3,['icsd-49583'],Cubic,Pm-3m,221.0,m-3m,5.0,3.0,80.16167060494220,5.090590905712120,-5.459423128,-2.4394510310862100
mp-555302,CsFeF3,"['icsd-410387', 'icsd-67169']",Hexagonal,P6_3/mmc,194.0,6/mmm,30.0,3.0,510.4873134739290,4.796243831305910,-5.7653030376666700,-2.745330940752870
mp-562726,CsGaS3,['icsd-281723'],Monoclinic,P2_1/c,14.0,2/m,20.0,3.0,596.6264354825280,3.3267584966791,-4.4019206970000000,-1.1353510979612100
mp-510283,CsGaSe3,['icsd-98670'],Monoclinic,P2_1/c,14.0,2/m,20.0,3.0,668.8176749754030,4.36484250813304,-3.9549631805000000,-1.0727166149924600
mp-984082,CsGdO3,,Cubic,Pm-3m,221.0,m-3m,5.0,3.0,93.91437828700500,5.97903494369514,-8.231932934,-2.2696147848362100
mp-642739,CsGeBr3,,Monoclinic,Cm,8.0,m,5.0,3.0,191.7415934285750,3.8560615897360900,-3.53446659,-1.4989635465862100
mp-1068340,CsGeBr3,"['icsd-80319', 'icsd-62558', 'icsd-80318', 'icsd-80317']",Trigonal,R3m,160.0,3m,5.0,3.0,182.0146934299270,4.062130257958360,-3.5350909800000000,-1.4995879365862100
mp-570223,CsGeBr3,['icsd-80320'],Cubic,Pm-3m,221.0,m-3m,5.0,3.0,169.417801492696,4.364165908542950,-3.522575448,-1.487072404586210
mp-22988,CsGeCl3,"['icsd-62557', 'icsd-75215', 'icsd-23121']",Trigonal,R3m,160.0,3m,5.0,3.0,162.92527551742100,3.17893909205653,-3.92553261,-1.7127245685862100
mp-642690,CsGeI3,,Monoclinic,Cm,8.0,m,5.0,3.0,234.16603554860100,4.157331105019940,-3.0815774740000000,-1.093871618586210
mp-28377,CsGeI3,['icsd-62559'],Trigonal,R3m,160.0,3m,5.0,3.0,225.06811678964100,4.325382720624480,-3.090217248,-1.102511392586210
mp-984051,CsGeO3,,Cubic,Pm-3m,221.0,m-3m,5.0,3.0,67.14881807585640,6.269941171455410,-5.3570846340000000,-1.2853853618362100
mp-998323,CsInBr3,,Tetragonal,P4mm,99.0,4mm,5.0,3.0,192.51406065242800,4.204397370159400,-3.2428760340000000,-1.5816418155862100
mp-2649045,CsInBr3,,Cubic,Pm-3m,221.0,m-3m,5.0,3.0,184.33120029498300,4.39103965595892,-3.242024946,-1.5807907275862100
mp-1112338,CsInBr3,,Cubic,Fm-3m,225.0,m-3m,10.0,3.0,382.1688493634600,4.235853401834920,-3.261870632,-1.6006364135862100
mp-1112961,CsInCl3,,Cubic,Fm-3m,225.0,m-3m,10.0,3.0,334.5962553225380,3.5144908816190300,-3.655730465,-1.8171912485862100
mp-998322,CsInF3,,Cubic,Pm-3m,221.0,m-3m,5.0,3.0,102.12922248166200,4.954480504673030,-4.528598134,-2.652293533086210
mp-1112960,CsInF3,,Cubic,Fm-3m,225.0,m-3m,10.0,3.0,206.7003705766100,4.895949052546790,-4.635006778000000,-2.7587021770862100
mp-1112643,CsInI3,,Cubic,Fm-3m,225.0,m-3m,10.0,3.0,483.70608328452900,4.314785346466760,-2.7974773080000000,-1.1840402775862100
mp-998430,CsInI3,,Triclinic,P-1,2.0,-1,20.0,3.0,1195.9190145035400,3.490349923099640,-2.8014681365,-1.188031106086210
mp-28295,CsIO3,['icsd-61009'],Orthorhombic,Pmn2_1,31,mm2,10,3,203.892474642291,5.01369569748416,-4.827901017,-1.38613404583621
mp-613384,CsIO3,['icsd-33665'],Cubic,Pm-3m,221,m-3m,5,3,96.7235643454211,5.28441455699851,-2.861480212,0.580286759163793
mp-984356,CsIrO3,,Cubic,Pm-3m,221.0,m-3m,5.0,3.0,68.60262261525110,9.031453833916110,-5.96647933,-1.051698792836210
mp-984357,CsKO3,,Cubic,Pm-3m,221.0,m-3m,5.0,3.0,90.71143373223840,4.027296458972960,-3.7879765500000000,-0.4188030594362070
mp-1183918,CsLaO3,,Cubic,Pm-3m,221.0,m-3m,5.0,3.0,108.21457999119700,4.907430595888200,-6.362289472,-2.2279943498362100
mp-29750,CsMgBr3,['icsd-87260'],Hexagonal,P6_3/mmc,194.0,6/mmm,10.0,3.0,329.7912236044660,3.9971059907955900,-3.4630993230000000,-2.032145840586210
mp-23004,CsMgCl3,"['icsd-22086', 'icsd-54167']",Hexagonal,P6_3/mmc,194.0,6/mmm,10.0,3.0,284.72980335970200,3.0742645587359900,-3.9305257740000000,-2.3222672935862100
mp-8401,CsMgF3,"['icsd-290359', 'icsd-290360', 'icsd-49584']",Cubic,Pm-3m,221.0,m-3m,5.0,3.0,76.89070343345320,4.626006179218940,-5.0720261320000000,-3.426002267086210
mp-23751,CsMgH3,"['icsd-94940', 'icsd-162260']",Trigonal,R-3m,166.0,-3m,15.0,3.0,249.5850962832940,3.198211018130810,-2.8617344180000000,-0.32696230658620700
mp-571020,CsMgH3,"['icsd-96230', 'icsd-159177']",Orthorhombic,Pmmn,59.0,mmm,30.0,3.0,519.1655843728440,3.075033588209560,-2.8658380650000000,-0.3310659535862070
mp-29751,CsMgI3,['icsd-87262'],Hexagonal,P6_3/mmc,194.0,6/mmm,10.0,3.0,419.41990241709300,4.25942394432683,-2.910670538,-1.5275142435862100
mp-984756,CsMgO3,,Cubic,Pm-3m,221.0,m-3m,5.0,3.0,79.08622793913020,4.308676645275570,-4.796850304,-1.329700592836210
mp-23048,CsMnBr3,"['icsd-2782', 'icsd-9703']",Hexagonal,P6_3/mmc,194.0,6/mmm,10.0,3.0,331.4915425324250,4.283503586958500,-4.563924619,-1.620624088172410
mp-23336,CsMnCl3,"['icsd-2555', 'icsd-21105']",Trigonal,R-3m,166.0,-3m,15.0,3.0,422.31554616605500,3.470400822528250,-4.978613888666670,-1.8580083598390800
mp-558702,CsMnF3,"['icsd-410386', 'icsd-31765']",Hexagonal,P6_3/mmc,194.0,6/mmm,30.0,3.0,505.0130043739790,4.830341796798410,-6.150157400333330,-2.991786487005750
mp-540609,CsMnI3,"['icsd-15952', 'icsd-10042', 'icsd-15951', 'icsd-15949', 'icsd-15950']",Hexagonal,P6_3/mmc,194.0,6/mmm,10.0,3.0,415.0625997810130,4.549246094400320,-4.061614498,-1.166111155172410
mp-1183917,CsMoO3,,Cubic,Pm-3m,221.0,m-3m,5.0,3.0,70.60272032171410,6.511217942104930,-7.094930356000000,-1.7787066328362100
mp-1214236,CSN3,,Triclinic,P-1,2,-1,10,3,259.186236209729,1.10318697058045,-7.475025042,0.199894984875
mp-998609,CsNaF3,,Orthorhombic,Pnma,62.0,mmm,20.0,3.0,395.24948128261100,3.57761762083351,-4.001478365,-2.4110054513965500
mp-1183929,CsNaO3,,Cubic,Pm-3m,221.0,m-3m,5.0,3.0,88.02284214895060,3.846421940332160,-3.68425351,-0.2726547501465520
mp-27556,CsNbO3,['icsd-1266'],Monoclinic,P2_1/c,14.0,2/m,40.0,3.0,769.5758857758330,4.726470911583440,-8.00268192875,-2.8353272195862100
mp-1096944,CsNbO3,,Cubic,Pm-3m,221.0,m-3m,5.0,3.0,72.55966476353420,6.266184612052440,-7.751388582,-2.584033872836210
mp-1183922,CsNdO3,,Cubic,Pm-3m,221.0,m-3m,5.0,3.0,104.99198912886200,5.142459551389270,-6.251415182000000,-2.1506919943362100
mp-1080570,CsNiBr3,['icsd-423829'],Hexagonal,P6_3/mmc,194.0,6/mmm,10.0,3.0,310.32491166107100,4.615862230298170,-3.6158858240000000,-1.3489610155862100
mp-22950,CsNiCl3,"['icsd-60262', 'icsd-423828', 'icsd-59371']",Hexagonal,P6_3/mmc,194.0,6/mmm,10.0,3.0,267.332248416491,3.7015411063265200,-4.021991391000000,-1.5777615845862100
mp-611601,CsNiF3,,Hexagonal,P6_3/mmc,194.0,6/mmm,10.0,3.0,259.15260821120200,3.185768830920610,-4.996096079,-2.5141008880862100
mp-1194078,CsNiF3,['icsd-410392'],Hexagonal,P6_3/mmc,194.0,6/mmm,30.0,3.0,475.63212640576800,5.207387742686000,-5.062250362666670,-2.5802551717528700
mp-557772,CsNiF3,"['icsd-410394', 'icsd-15092', 'icsd-61278']",Hexagonal,P6_3/mmc,194.0,6/mmm,10.0,3.0,172.8264126890780,4.777049345902460,-5.090860699,-2.608865508086210
mp-505492,CsNiF3,['icsd-410393'],Trigonal,R-3m,166.0,-3m,15.0,3.0,253.07704732558200,4.893373245908570,-5.083441507333330,-2.60144631641954
mp-1183933,CsNpO3,,Cubic,Pm-3m,221.0,m-3m,5.0,3.0,84.66489357279500,8.196376452751360,-8.721830296,-2.985180658586210
mp-1183914,CsOsO3,,Cubic,Pm-3m,221.0,m-3m,5.0,3.0,66.6889474096607,9.241140426525900,-6.716291416,-1.3237242288362100
mp-1183920,CsPaO3,,Cubic,Pm-3m,221.0,m-3m,5.0,3.0,86.93019019772650,7.86886217827183,-8.516854444,-3.4668278108362100
mp-567629,CsPbBr3,['icsd-97851'],Orthorhombic,Pnma,62.0,mmm,20.0,3.0,813.5305348019320,4.733981032983980,-3.5393921645000000,-1.6859652780862100
mp-567681,CsPbBr3,['icsd-28312'],Orthorhombic,Pnma,62.0,mmm,20.0,3.0,769.2071757466880,5.006763123039220,-3.5406624405000000,-1.687235554086210
mp-1014168,CsPbBr3,,Tetragonal,I4/mcm,140.0,4/mmm,10.0,3.0,406.14133522480600,4.741253582787800,-3.5316805470000000,-1.6782536605862100
mp-1120725,CsPbBr3,,Orthorhombic,Amm2,38.0,mm2,10.0,3.0,407.6294025266830,4.723945448529760,-3.533006652,-1.679579765586210
mp-600089,CsPbBr3,"['icsd-97852', 'icsd-29073', 'icsd-201285', 'icsd-181287']",Cubic,Pm-3m,221.0,m-3m,5.0,3.0,210.49949127443700,4.57392806294795,-3.531798372,-1.6783714855862100
mp-23037,CsPbCl3,"['icsd-201250', 'icsd-181286', 'icsd-201251', 'icsd-181780', 'icsd-181779', 'icsd-29072', 'icsd-181781']",Cubic,Pm-3m,221.0,m-3m,5.0,3.0,183.23540813354200,4.046006564887250,-3.911754424,-1.881022539586210
mp-675524,CsPbCl3,,Orthorhombic,Amm2,38.0,mm2,10.0,3.0,356.750744626023,4.156244523078860,-3.916884596,-1.8861527115862100
mp-675022,CsPbCl3,,Trigonal,R32,155.0,32,5.0,3.0,182.94648775297900,4.052396268077770,-3.9082919240000000,-1.8775600395862100
mp-1539667,CsPbCl3,,Tetragonal,P4/mbm,127.0,4/mmm,10.0,3.0,356.9651386649450,4.153748273575660,-3.920044919,-1.8893130345862100
mp-5811,CsPbF3,"['icsd-290350', 'icsd-290349', 'icsd-30739', 'icsd-93439', 'icsd-290351']",Cubic,Pm-3m,221.0,m-3m,5.0,3.0,112.77738319130200,5.846927310548790,-4.849617814,-2.781120545086210
mp-20282,CsPbF3,['icsd-93438'],Trigonal,R3c,161.0,3m,10.0,3.0,220.02777346350800,5.99379934099832,-4.854054985000000,-2.785557716086210
mp-1120768,CsPbI3,,Orthorhombic,Pnma,62.0,mmm,20.0,3.0,1008.6977999447000,4.74650734914947,-3.0859359250000000,-1.280306226586210
mp-1069538,CsPbI3,"['icsd-181288', 'icsd-161481']",Cubic,Pm-3m,221.0,m-3m,5.0,3.0,247.0988555291860,4.844004143862670,-3.076709898,-1.271080199586210
mp-540839,CsPbI3,"['icsd-250744', 'icsd-161480', 'icsd-27979']",Orthorhombic,Pnma,62.0,mmm,20.0,3.0,930.846658290349,5.143480376565950,-3.101759242,-1.296129543586210
mp-1185545,CsPbO3,,Cubic,Pm-3m,221.0,m-3m,5.0,3.0,89.94995765714650,7.164664583017450,-5.014652548,-1.1250294328362100
mp-998306,CsPdBr3,,Orthorhombic,Amm2,38.0,mm2,5.0,3.0,151.6396774825950,5.2457273482118100,-3.4354150600000000,-1.2885412255862100