nsites,nelements,formula_pretty,volume,density,crystal_system,symbol,number,point_group,symprec,version,material_id,energy_per_atom,formation_energy_per_atom,e_total,e_electronic,icsd
20.0,3.0,ReMoN3,345.80568942326767,6.226527210170413,Triclinic,P-1,2.0,-1,0.1,1.16.2,mp-1245819,-9.580450401499998,0.07948201250000012,,,
5.0,3.0,MoPbO3,69.30224559771202,8.413561405503058,Cubic,Pm-3m,221.0,m-3m,0.1,1.16.2,mp-1186106,-7.563607447999999,-1.683934785249999,,,
5.0,3.0,BiMoO3,69.76336218902185,8.400327969313365,Cubic,Pm-3m,221.0,m-3m,0.1,1.16.2,mp-1183479,-7.32215941,-1.4169183352500005,,,
5.0,3.0,ThMoO3,69.39050638341453,8.997243288505276,Cubic,Pm-3m,221.0,m-3m,0.1,1.16.2,mp-1187460,-8.899091794,-2.279176895250001,,,
5.0,3.0,NpMoO3,65.25116984680244,9.694274670407033,Cubic,Pm-3m,221.0,m-3m,0.1,1.16.2,mp-1186334,-9.820242098,-2.0935429130000003,,,
20.0,3.0,CdTcO3,238.9613288887264,7.18272824752602,Orthorhombic,Pnma,62.0,mmm,0.1,1.16.2,mp-1189706,-6.785474975,-1.5607560072499993,,,['icsd-180009']
5.0,3.0,TcSnO3,63.24387741514354,6.950211234899953,Cubic,Pm-3m,221.0,m-3m,0.1,1.16.2,mp-1187400,-7.341659590000001,-1.4996042032500008,,,
30.0,3.0,BaTcO3,406.2842187794692,6.947932625573583,Hexagonal,P6_3/mmc,194.0,6/mmm,0.1,1.16.2,mp-555174,-7.8910644213333345,-2.4671284175833343,,,['icsd-109077']
20.0,3.0,LaTcN3,322.0690633817293,5.752391127485708,Monoclinic,C2/c,15.0,2/m,0.1,1.16.2,mp-989619,-8.8758376175,-0.8146114525000001,,,
10.0,3.0,LaTcN3,142.51842879636195,6.499746167149664,Monoclinic,P2/m,10.0,2/m,0.1,1.16.2,mp-989406,-8.83488222,-0.7736560550000007,,,
10.0,3.0,LaTcN3,124.18184177716836,7.45949325650651,Trigonal,R-3c,167.0,-3m,0.1,1.16.2,mp-989593,-8.842234127,-0.7810079619999997,,,
5.0,3.0,EuTcO3,62.47493265931672,7.919622357468801,Cubic,Pm-3m,221.0,m-3m,0.1,1.16.2,mp-1184447,-9.522178676,-2.4306373002499995,,,
5.0,3.0,YbTcO3,59.45933150596865,8.909878086748487,Cubic,Pm-3m,221.0,m-3m,0.1,1.16.2,mp-1187518,-7.85670274,-2.50864006825,,,
5.0,3.0,TlTcO3,63.556834845711684,9.154360351271718,Cubic,Pm-3m,221.0,m-3m,0.1,1.16.2,mp-1187623,-7.0171885860000005,-1.5045189409166668,,,
20.0,3.0,TcPbO3,286.1710768914209,8.197885205224003,Cubic,Fd-3m,227.0,m-3m,0.1,1.16.2,mp-687205,-7.437499719,-1.65482928925,,,['icsd-109078']
5.0,3.0,UTcO3,62.43743604560292,10.21329604762661,Cubic,Pm-3m,221.0,m-3m,0.1,1.16.2,mp-1187783,-9.315465532000001,-2.017042514250001,,,
5.0,3.0,NpTcO3,62.79440236587778,10.128028129511602,Cubic,Pm-3m,221.0,m-3m,0.1,1.16.2,mp-977184,-9.671323103999999,-2.041626151999999,,,
20.0,3.0,AgRuO3,265.5367834644938,6.427025653696133,Cubic,Fd-3m,227.0,m-3m,0.1,1.16.2,mp-776168,-6.386093229,-0.9966882935833332,,,
5.0,3.0,CdRuO3,60.61615746211363,7.1630476902911004,Cubic,Pm-3m,221.0,m-3m,0.1,1.16.2,mp-1016849,-6.094784726,-1.0873130392500001,,,
5.0,3.0,CsRuO3,67.44006663288721,6.942879627931556,Cubic,Pm-3m,221.0,m-3m,0.1,1.16.2,mp-1183971,-6.273033112,-1.2710589028362071,,,
5.0,3.0,BaRuO3,67.1049654561984,7.08696316067908,Cubic,Pm-3m,221.0,m-3m,0.1,1.16.2,mp-1017591,-7.328901740000001,-2.12221301725,,,
30.0,3.0,BaRuO3,415.01932828972775,6.875396671955308,Hexagonal,P6_3/mmc,194.0,6/mmm,0.1,1.16.2,mp-3598,-7.371691194333334,-2.1650024715833336,,,"['icsd-160287', 'icsd-173866', 'icsd-246019']"
15.0,3.0,BaRuO3,209.27383936981565,6.817437184487096,Trigonal,R-3m,166.0,-3m,0.1,1.16.2,mp-5773,-7.395671109333334,-2.1889823865833336,,,"['icsd-172175', 'icsd-10253', 'icsd-91075', 'icsd-51293', 'icsd-150205', 'icsd-110770']"
20.0,3.0,BaRuO3,278.8465487700886,6.821965990747581,Hexagonal,P6_3/mmc,194.0,6/mmm,0.1,1.16.2,mp-3597,-7.389053776999999,-2.182365054249999,,,"['icsd-84652', 'icsd-172176']"
20.0,3.0,LaRuO3,256.6239132497035,7.453577075210139,Orthorhombic,Pnma,62.0,mmm,0.1,1.16.2,mp-20472,-8.3709623095,-2.5608671537500003,,,['icsd-75569']
20.0,3.0,PrRuO3,252.94890109212832,7.614442683349157,Orthorhombic,Pnma,62.0,mmm,0.1,1.16.2,mp-20186,-8.263661768,-2.4845868822500004,,,['icsd-75570']
5.0,3.0,PmRuO3,62.278737736241204,7.840745527194333,Cubic,Pm-3m,221.0,m-3m,0.1,1.16.2,mp-983513,-7.959914948,-2.1869127487499993,,,
5.0,3.0,EuRuO3,63.26752854159861,7.900983963296029,Cubic,Pm-3m,221.0,m-3m,0.1,1.16.2,mp-866036,-9.041606374,-2.1673122792499995,,,
5.0,3.0,RuPbO3,64.0068642453909,9.24271593776542,Cubic,Pm-3m,221.0,m-3m,0.1,1.16.2,mp-974337,-6.871376838000001,-1.3059536892500005,,,
20.0,3.0,URuS3,365.328437596662,7.914221490811957,Orthorhombic,Pnma,62.0,mmm,0.1,1.16.2,mp-1105660,-7.8994415915000005,-1.3044091613750013,,,['icsd-650585']
5.0,3.0,NpRuO3,62.217858564191054,10.303815387836424,Cubic,Pm-3m,221.0,m-3m,0.1,1.16.2,mp-1186329,-9.274044056,-1.8615943849999994,,,
10.0,2.0,Rh2O3,182.71470554110437,4.613313316126916,Monoclinic,C2/c,15.0,2/m,0.1,1.16.2,mp-1179706,-6.443846381,-0.5301100062499998,,,
20.0,2.0,Rh2O3,234.64698234555382,7.184581499400283,Orthorhombic,Pnma,62.0,mmm,0.1,1.16.2,mp-1189664,-6.712944493,-0.7992081182500002,,,['icsd-181832']
20.0,2.0,Rh2O3,218.35607949827573,7.720601927473621,Orthorhombic,Pnma,62.0,mmm,0.1,1.16.2,mp-1179690,-6.858797912999999,-0.945061538249999,,,['icsd-181831']
40.0,2.0,Rh2O3,415.48036728075584,8.115138528847908,Orthorhombic,Pbca,61.0,mmm,0.1,1.16.2,mp-613620,-6.98452499325,-1.0707886184999993,,,['icsd-9206']
20.0,2.0,Rh2O3,203.43243845929118,8.286979112170076,Orthorhombic,Pbcn,60.0,mmm,0.1,1.16.2,mp-1716,-6.985920994500001,-1.07218461975,,,"['icsd-41534', 'icsd-181830', 'icsd-647368', 'icsd-21045']"
10.0,2.0,Rh2O3,106.04826475671567,7.948458054063597,Trigonal,R-3c,167.0,-3m,0.1,1.16.2,mp-542734,-6.981703745,-1.0679673702499997,,,"['icsd-108941', 'icsd-181829', 'icsd-33645', 'icsd-647369']"
20.0,2.0,Rh2S3,315.0091498043007,6.367977078242351,Orthorhombic,Pbcn,60.0,mmm,0.1,1.16.2,mp-17173,-6.1898001855,-0.7622071173750001,27.106946976666666,25.08188249666667,['icsd-15344']
10.0,2.0,Rh2S3,163.22288044051223,6.1448831192557245,Trigonal,R-3c,167.0,-3m,0.1,1.16.2,mp-974381,-6.188203609,-0.7606105408749997,,,
20.0,2.0,Rh2Se3,367.1167277843695,8.009503727806093,Orthorhombic,Pbcn,60.0,mmm,0.1,1.16.2,mp-1105666,-5.732608991,-0.6893389564062495,,,['icsd-650282']
5.0,3.0,CdRhO3,61.70418835153962,7.086137227330518,Cubic,Pm-3m,221.0,m-3m,0.1,1.16.2,mp-1016875,-5.479369706,-0.8539169532499997,,,
40.0,3.0,InRhO3,459.51381584522665,7.681880256535902,Monoclinic,P2_1/c,14.0,2/m,0.1,1.16.2,mp-1203220,-6.498414126750001,-1.5072025800000006,,,"['icsd-237352', 'icsd-237349']"
20.0,3.0,InRhO3,231.0110061819039,7.6401773402245725,Orthorhombic,Pnma,62.0,mmm,0.1,1.16.2,mp-1105819,-6.4651187425000005,-1.4739071957500003,,,['icsd-237351']
20.0,3.0,InRhO3,243.50880333291278,7.248054405493056,Orthorhombic,Pnma,62.0,mmm,0.1,1.16.2,mp-1212207,-6.2046191825,-1.2134076357499999,,,
5.0,3.0,BaRhO3,68.64174366791524,6.9727007498380615,Cubic,Pm-3m,221.0,m-3m,0.1,1.16.2,mp-1016850,-6.739862990000001,-1.9151932012500006,,,
20.0,3.0,BaRhO3,278.4995456894578,6.874242273661015,Hexagonal,P6_3/mmc,194.0,6/mmm,0.1,1.16.2,mp-7685,-6.8227054355,-1.9980356467499996,,,['icsd-15520']
20.0,3.0,LaRhO3,250.62051880749198,7.6807669369413905,Orthorhombic,Pnma,62.0,mmm,0.1,1.16.2,mp-5163,-7.973849524,-2.5457733022500006,,,"['icsd-172347', 'icsd-172353']"
20.0,3.0,CeRhO3,251.99033953667274,7.670922335971273,Orthorhombic,Pnma,62.0,mmm,0.1,1.16.2,mp-1213826,-8.1817845965,-2.55429196475,,,
20.0,3.0,PrRhO3,247.07173136147833,7.844914415455231,Orthorhombic,Pnma,62.0,mmm,0.1,1.16.2,mp-4789,-7.872002894,-2.474946942250001,,,"['icsd-172348', 'icsd-172354']"
20.0,3.0,NdRhO3,243.69214839187953,8.044591808528452,Orthorhombic,Pnma,62.0,mmm,0.1,1.16.2,mp-4582,-7.8904300875,-2.4959258002500007,,,"['icsd-188151', 'icsd-172349', 'icsd-172355']"
20.0,3.0,SmRhO3,237.73550180216748,8.417087719860298,Orthorhombic,Pnma,62.0,mmm,0.1,1.16.2,mp-3317,-7.914245706,-2.52965367825,,,"['icsd-172350', 'icsd-172356']"
20.0,3.0,EuRhO3,238.55630034079877,8.432787516285554,Orthorhombic,Pnma,62.0,mmm,0.1,1.16.2,mp-19801,-8.7051008885,-2.21282572775,,,"['icsd-172357', 'icsd-172351']"
5.0,3.0,GdRhO3,62.27826638278755,8.216369643660476,Cubic,Pm-3m,221.0,m-3m,0.1,1.16.2,mp-1184503,-9.328475658,-2.0723764092500003,,,
20.0,3.0,TbRhO3,229.55338451111137,8.964942818652476,Orthorhombic,Pnma,62.0,mmm,0.1,1.16.2,mp-5692,-7.9449810865,-2.5772330657500007,,,"['icsd-172358', 'icsd-172352']"
5.0,3.0,DyRhO3,61.17914549087616,8.506478527795034,Cubic,Pm-3m,221.0,m-3m,0.1,1.16.2,mp-1183821,-7.377436208000001,-2.0152040392500004,,,
20.0,3.0,DyRhO3,227.48179478810232,9.15095799998858,Orthorhombic,Pnma,62.0,mmm,0.1,1.16.2,mp-1212884,-7.946916541,-2.5846843722500004,,,
20.0,3.0,HoRhO3,225.4575253306886,9.304718979809337,Orthorhombic,Pnma,62.0,mmm,0.1,1.16.2,mp-1212108,-7.948614021999999,-2.59125744725,,,
5.0,3.0,HoRhO3,61.043607647563775,8.591476634200149,Cubic,Pm-3m,221.0,m-3m,0.1,1.16.2,mp-1184833,-7.347871008,-1.99051443325,,,
20.0,3.0,ErRhO3,223.42346421208666,9.458659049049958,Orthorhombic,Pnma,62.0,mmm,0.1,1.16.2,mp-1213022,-7.951800668999999,-2.5973821062499995,,,
20.0,3.0,TmRhO3,221.62220557287324,9.585742424353931,Orthorhombic,Pnma,62.0,mmm,0.1,1.16.2,mp-1207705,-7.946072353,-2.610030467583333,,,
20.0,3.0,YbRhO3,215.20065822473362,9.99850416195661,Orthorhombic,Pnma,62.0,mmm,0.1,1.16.2,mp-1207518,-7.0313681245,-2.2825716677499996,,,
20.0,3.0,LuRhO3,218.14931123596662,9.922030465179358,Orthorhombic,Pnma,62.0,mmm,0.1,1.16.2,mp-1205366,-7.958022456499999,-2.612957551749999,,,['icsd-188152']
5.0,3.0,LuRhO3,60.42244361076046,8.955629658015384,Cubic,Pm-3m,221.0,m-3m,0.1,1.16.2,mp-973681,-7.234465068,-1.88940016325,,,
20.0,3.0,RhWN3,288.2338482219053,7.5761833791830036,Triclinic,P-1,2.0,-1,0.1,1.16.2,mp-1246660,-9.009417082999999,0.05696749200000113,,,
20.0,3.0,BiRhO3,251.64851803379383,9.498988703250447,Orthorhombic,Pnma,62.0,mmm,0.1,1.16.2,mp-573119,-6.5665035535000005,-1.3575309267500004,,,"['icsd-108996', 'icsd-188150']"
20.0,3.0,URhS3,365.33815036355753,7.947382026678309,Orthorhombic,Pnma,62.0,mmm,0.1,1.16.2,mp-21217,-7.531425115,-1.3184116188750004,,,['icsd-202438']
20.0,3.0,AgPdO3,267.596321977409,6.5103557570517445,Orthorhombic,Cmcm,63.0,mmm,0.1,1.16.2,mp-776166,-4.747613204,-0.17711241458333332,,,
5.0,3.0,SbPdO3,63.684440061159755,7.201204721323514,Cubic,Pm-3m,221.0,m-3m,0.1,1.16.2,mp-1186927,-5.742308024,-0.9125181872500001,,,
5.0,3.0,CsPdO3,74.07238969648931,6.4411604741401,Cubic,Pm-3m,221.0,m-3m,0.1,1.16.2,mp-1183913,-4.873876142,-0.6908060788362071,,,
5.0,3.0,CsPdF3,86.01514171656484,5.720528093564077,Cubic,Pm-3m,221.0,m-3m,0.1,1.16.2,mp-1207302,-4.4641140319999995,-2.1021698150862065,,,
20.0,3.0,CsPdCl3,636.5232181476741,3.6072370699476015,Orthorhombic,Ibam,72.0,mmm,0.1,1.16.2,mp-29882,-3.8074593234999994,-1.4832804910862063,,,['icsd-89568']
5.0,3.0,CsPdCl3,129.8020118363025,4.422293067537942,Cubic,Pm-3m,221.0,m-3m,0.1,1.16.2,mp-1147710,-3.7649709519999996,-1.4407921195862063,,,
5.0,3.0,CsPdBr3,151.6396774825951,5.2457273482118145,Orthorhombic,Amm2,38.0,mm2,0.1,1.16.2,mp-998306,-3.4354150599999995,-1.2885412255862065,,,
5.0,3.0,CsPdBr3,147.1719038789495,5.404974606421774,Cubic,Pm-3m,221.0,m-3m,0.1,1.16.2,mp-998307,-3.435474112,-1.2886002775862067,,,
5.0,3.0,BaPdO3,70.35635538244601,6.885721971520744,Cubic,Pm-3m,221.0,m-3m,0.1,1.16.2,mp-1178510,-6.073839014,-1.6860544372500001,,,
20.0,3.0,LaPdO3,259.89702324528884,7.496436967402867,Orthorhombic,Pnma,62.0,mmm,0.1,1.16.2,mp-16415,-7.354187217000001,-2.3629962072500006,,,['icsd-93099']
5.0,3.0,EuH3Pd,54.489749979605094,7.966230301794582,Cubic,Pm-3m,221.0,m-3m,0.1,1.16.2,mp-644246,-5.650350778,-0.5273384289999996,,,['icsd-93047']
5.0,3.0,EuPdO3,65.4166296222544,7.777221409122811,Cubic,Pm-3m,221.0,m-3m,0.1,1.16.2,mp-1184369,-7.853212588,-1.7978226392499999,,,
5.0,3.0,YbH3Pd,48.91958883699776,9.58870321570736,Cubic,Pm-3m,221.0,m-3m,0.1,1.16.2,mp-1018646,-3.953013404,-0.5734797589999999,,,['icsd-638422']
5.0,3.0,YbPdO3,60.86657526310353,8.933591736154968,Cubic,Pm-3m,221.0,m-3m,0.1,1.16.2,mp-1187570,-6.007689812000001,-1.69577856725,,,
5.0,3.0,LuPdO3,62.275768249188445,8.782822082118303,Cubic,Pm-3m,221.0,m-3m,0.1,1.16.2,mp-1185490,-6.662980225999999,-1.754800533249999,,,
5.0,3.0,TlPdF3,77.94145138407865,7.835930470661132,Cubic,Pm-3m,221.0,m-3m,0.1,1.16.2,mp-998786,-4.351736202,-1.6963438301666667,,,
5.0,3.0,AcPdO3,66.68667373916479,9.497547055496376,Cubic,Pm-3m,221.0,m-3m,0.1,1.16.2,mp-1183145,-7.065943372,-2.2377187817499995,,,
5.0,3.0,ThPdO3,66.22347133013452,9.690306236938596,Cubic,Pm-3m,221.0,m-3m,0.1,1.16.2,mp-1187442,-7.490239,-2.003477761249999,,,
5.0,3.0,UPdO3,74.63127625787703,8.731912281353836,Cubic,Pm-3m,221.0,m-3m,0.1,1.16.2,mp-1187714,-8.711690712,-2.449419121249999,,,
20.0,3.0,UPdSe3,453.3335669590277,8.517519424598364,Orthorhombic,Pnma,62.0,mmm,0.1,1.16.2,mp-21103,-6.492053683499999,-1.100248432906249,,,['icsd-40434']
10.0,2.0,Ag2O3,133.16729061320189,6.577314962218024,Cubic,Pn-3m,224.0,m-3m,0.1,1.16.2,mp-11872,-4.290940957,-0.18990532891666662,,,['icsd-15999']
10.0,2.0,Ag2O3,124.7847648799555,7.019151848151168,Orthorhombic,Fdd2,43.0,mm2,0.1,1.16.2,mp-546190,-4.4611763,-0.3601406719166668,16.22497843,14.686282109999999,['icsd-59193']
20.0,2.0,Ag2O3,283.5055218558439,6.178949935751977,Orthorhombic,Cmcm,63.0,mmm,0.1,1.16.2,mp-1046809,-4.224337974,-0.12330234591666667,,,
10.0,2.0,Ag2F3,152.3075375762956,5.9469347301427815,Trigonal,R-3c,167.0,-3m,0.1,1.16.2,mp-861945,-3.60927414,-1.3293643581666668,,,
10.0,2.0,Ag2Cl3,229.46257914848442,4.6617796841379775,Trigonal,R-3c,167.0,-3m,0.1,1.16.2,mp-864635,-2.989540508,-0.7473961106666668,,,
10.0,2.0,Ag2Br3,264.1799197898534,5.725566588271111,Trigonal,R-3c,167.0,-3m,0.1,1.16.2,mp-862982,-2.70858739,-0.6437479906666663,,,
10.0,3.0,AgSnO3,134.59491336386625,6.7750679066716115,Orthorhombic,Cmmm,65.0,mmm,0.1,1.16.2,mp-755834,-5.689126443,-1.3526876445833331,,,
20.0,3.0,AgSbO3,271.7080679491053,6.786835394315514,Cubic,Fd-3m,227.0,m-3m,0.1,1.16.2,mp-540872,-5.783987181,-1.4236625055833336,,,"['icsd-25541', 'icsd-250794', 'icsd-165169']"
30.0,3.0,AgSbO3,430.8249683273084,6.420372777966916,Monoclinic,C2,5.0,2,0.1,1.16.2,mp-860791,-5.747215704666668,-1.3868910292500014,,,
60.0,3.0,AgSbO3,857.9101650285205,6.448360239734785,Triclinic,P1,1.0,1,0.1,1.16.2,mp-677054,-5.731120557666667,-1.3707958822500008,,,
10.0,3.0,AgSbO3,137.6369853909369,6.698918634552929,Trigonal,R-3,148.0,-3,0.1,1.16.2,mp-545999,-5.790875897,-1.4305512215833338,24.8699190392,17.24347297338539,['icsd-245292']
10.0,3.0,CsAgF3,174.82153892359406,5.6567037492314665,Tetragonal,I4/mcm,140.0,4/mmm,0.1,1.16.2,mp-561920,-4.0251278049999994,-2.13264874941954,,,['icsd-23154']
10.0,3.0,CsAgCl3,278.6981311044577,4.136571188964022,Tetragonal,I4/mmm,139.0,4/mmm,0.1,1.16.2,mp-28610,-3.3036615320000005,-1.4489478609195405,,,['icsd-66067']
5.0,3.0,CsAgBr3,165.98610336405272,4.806819244203732,Monoclinic,Pm,6.0,m,0.1,1.16.2,mp-998344,-2.9693970060000003,-1.2919883329195403,,,
5.0,3.0,CsAgBr3,165.98617894748145,4.806817055371613,Orthorhombic,Amm2,38.0,mm2,0.1,1.16.2,mp-1399321,-2.9694168000000003,-1.2920081269195403,,,
5.0,3.0,CsAgBr3,159.16633079233864,5.012776206807697,Cubic,Pm-3m,221.0,m-3m,0.1,1.16.2,mp-1946459,-2.96691858,-1.2895099069195404,,,
10.0,3.0,LaAgO3,139.99486405290418,6.992830903921755,Trigonal,R3c,161.0,3m,0.1,1.16.2,mp-768308,-6.613159625,-2.091433776583334,,,
5.0,3.0,LaAgO3,69.34770852603963,7.0583472226186075,Cubic,Pm-3m,221.0,m-3m,0.1,1.16.2,mp-1076000,-6.410640516000001,-1.8889146675833346,,,
5.0,3.0,SmAgO3,67.36633132962034,7.548294383676719,Cubic,Pm-3m,221.0,m-3m,0.1,1.16.2,mp-1075933,-6.175713672,-1.6974720175833333,,,
5.0,3.0,EuAgO3,68.38646826734634,7.474642543153219,Cubic,Pm-3m,221.0,m-3m,0.1,1.16.2,mp-1077622,-7.10164906,-1.5157242725833329,,,
10.0,3.0,TaAgO3,125.0421701330729,8.945674399821078,Trigonal,R-3c,167.0,-3m,0.1,1.16.2,mp-9890,-8.316438579,-2.4103586255833336,1501.0737042368048,6.729689043333335,['icsd-40831']
5.0,3.0,TaAgO3,63.96976476254995,8.743087804133681,Cubic,Pm-3m,221.0,m-3m,0.1,1.16.2,mp-1187189,-8.303033604,-2.3969536505833333,,,
10.0,3.0,TaAgS3,189.64022178739583,6.742514150089965,Orthorhombic,Cmc2_1,36.0,mm2,0.1,1.16.2,mp-561242,-6.379751500999999,-0.9598148542083337,,,['icsd-74442']
10.0,3.0,TaAgS3,186.09968231755818,6.870790228678843,Orthorhombic,Cmcm,63.0,mmm,0.1,1.16.2,mp-5821,-6.3799520649999995,-0.9600154182083337,,,"['icsd-73804', 'icsd-84910']"
20.0,3.0,AgAuO3,273.488677155319,8.569172736555055,Cubic,Fd-3m,227.0,m-3m,0.1,1.16.2,mp-776165,-4.5489843809999995,-0.3596835535833328,,,
20.0,3.0,AgAuO3,294.29506712515894,7.963340122990181,Orthorhombic,Cmcm,63.0,mmm,0.1,1.16.2,mp-752678,-4.189676009499999,-0.00037518208333295886,,,
5.0,3.0,TlAgF3,86.82902291658905,7.061562665438684,Trigonal,R3m,160.0,3m,0.1,1.16.2,mp-1400626,-3.89810869,-1.7121814794999999,,,
10.0,3.0,TlAgCl3,269.8364452252637,5.152151247461498,Trigonal,R3c,161.0,3m,0.1,1.16.2,mp-998748,-3.162428853,-1.014267027,,,
5.0,3.0,TlAgBr3,158.15388901605056,5.795348826320991,Monoclinic,Cm,8.0,m,0.1,1.16.2,mp-998154,-2.838739506,-0.8678826779999997,,,
10.0,3.0,TlAgBr3,316.11502618708124,5.798882553244007,Trigonal,R3c,161.0,3m,0.1,1.16.2,mp-998608,-2.845584166,-0.8747273379999999,,,
10.0,3.0,AgPbO3,146.41846842959492,8.23510787178762,Trigonal,R-3,148.0,-3,0.1,1.16.2,mp-1178556,-5.125327082,-0.8482732405833332,,,
10.0,3.0,AgBiO3,154.488213998263,7.843217926395456,Orthorhombic,Cmmm,65.0,mmm,0.1,1.16.2,mp-775774,-5.340340333,-1.037718079583334,,,
10.0,3.0,AgBiO3,154.63007543874295,7.8360223650541085,Trigonal,R-3,148.0,-3,0.1,1.16.2,mp-23548,-5.318382012,-1.0157597585833336,,,"['icsd-89432', 'icsd-91777']"
5.0,3.0,PaAgO3,80.34031925623562,7.996811026447928,Cubic,Pm-3m,221.0,m-3m,0.1,1.16.2,mp-977455,-8.276618826,-2.8391614665833345,,,
20.0,3.0,CdInBr3,615.4076256288415,5.039741075713652,Orthorhombic,Pnma,62.0,mmm,0.1,1.16.2,mp-505222,-2.827530226,-1.1607985299999999,,,['icsd-79512']
5.0,3.0,CdSnO3,66.7948768517519,6.938980318308384,Cubic,Pm-3m,221.0,m-3m,0.1,1.16.2,mp-1016881,-5.454133626,-1.49962807625,,,
10.0,3.0,CdSnO3,155.81331424913833,5.949277673370609,Monoclinic,P2_1/m,11.0,2/m,0.1,1.16.2,mp-1182642,-5.720829872,-1.76632432225,,,
10.0,3.0,CdSnO3,131.04061486299892,7.073964607426622,Trigonal,R-3,148.0,-3,0.1,1.16.2,mp-754329,-5.800440844,-1.8459352942499998,13.260969846666667,4.985014266666667,"['icsd-180400', 'icsd-180399', 'icsd-181930']"
20.0,3.0,CdSnO3,242.8075437023761,7.6354849403898974,Orthorhombic,Pnma,62.0,mmm,0.1,1.16.2,mp-849371,-5.7700575915000005,-1.81555204175,,,"['icsd-180402', 'icsd-180401', 'icsd-165167']"
5.0,3.0,CsCdO3,93.63968780473493,5.201431676083625,Cubic,Pm-3m,221.0,m-3m,0.1,1.16.2,mp-1183925,-4.033011278,-0.701339624836207,,,
5.0,3.0,CsCdF3,90.32609495079795,5.557644493354357,Cubic,Pm-3m,221.0,m-3m,0.1,1.16.2,mp-8399,-4.219606678,-2.7090608710862063,10.106644990000001,2.589646289999996,"['icsd-49582', 'icsd-290344', 'icsd-290345', 'icsd-290343']"
30.0,3.0,CsCdCl3,896.796766964518,3.907044593531172,Hexagonal,P6_3/mmc,194.0,6/mmm,0.1,1.16.2,mp-619015,-3.3138657456666665,-1.8410853232528732,,,"['icsd-4039', 'icsd-16575']"
5.0,3.0,CsCdCl3,145.8972327527039,4.002617565982152,Cubic,Pm-3m,221.0,m-3m,0.1,1.16.2,mp-568544,-3.306393628,-1.8336132055862069,13.510397226666669,3.40768799,['icsd-24484']
10.0,3.0,CsCdBr3,351.63652167638946,4.580916049065491,Hexagonal,P6_3/mmc,194.0,6/mmm,0.1,1.16.2,mp-541899,-2.941244357,-1.645768932586207,18.54363460333349,3.2755755099999995,"['icsd-281176', 'icsd-87261', 'icsd-1343', 'icsd-41454', 'icsd-41453']"
5.0,3.0,CsCdBr3,169.11875228033412,4.762385495000636,Cubic,Pm-3m,221.0,m-3m,0.1,1.16.2,mp-570231,-2.90856913,-1.613093705586207,,,['icsd-24483']
5.0,3.0,BaCdO3,79.65491918762994,6.206805514125855,Cubic,Pm-3m,221.0,m-3m,0.1,1.16.2,mp-1183292,-5.1822687279999995,-1.64588256125,,,
5.0,3.0,LaCdO3,73.04988646712441,6.803894253349305,Cubic,Pm-3m,221.0,m-3m,0.1,1.16.2,mp-973869,-6.213028832,-2.07323623225,,,
20.0,3.0,CeCdO3,305.7288508020773,6.529103599984977,Orthorhombic,Cmcm,63.0,mmm,0.1,1.16.2,mp-1213812,-7.0651081545,-2.7258991447499996,,,