material_id,formula_pretty,icsd,crystal_system,symbol,number,point_group,nsites,nelements,volume,density,energy_per_atom,formation_energy_per_atom
mp-1183292,BaCdO3,,Cubic,Pm-3m,221.0,m-3m,5.0,3.0,79.65491918762990,6.206805514125860,-5.1822687280000000,-1.64588256125
mp-4900,BaCeO3,"['icsd-79627', 'icsd-88593', 'icsd-88592', 'icsd-94348']",Trigonal,R-3c,167.0,-3m,10.0,3.0,172.44455093202100,6.267612673875870,-8.12700298,-3.5885769342500000
mp-3316,BaCeO3,"['icsd-79626', 'icsd-88591', 'icsd-94347']",Orthorhombic,Imma,74.0,mmm,10.0,3.0,172.26711111864300,6.274068485527650,-8.128615543000000,-3.5901894972500000
mp-3187,BaCeO3,"['icsd-188637', 'icsd-88590', 'icsd-165826', 'icsd-92180', 'icsd-92258', 'icsd-165827', 'icsd-94346', 'icsd-92264', 'icsd-79001', 'icsd-165830', 'icsd-165831', 'icsd-2751', 'icsd-79625', 'icsd-92273']",Orthorhombic,Pnma,62.0,mmm,20.0,3.0,344.64733173557000,6.272009404625960,-8.129798318,-3.5913722722500000
mp-5663,BaCeO3,"['icsd-29109', 'icsd-79628']",Cubic,Pm-3m,221.0,m-3m,5.0,3.0,89.56619857936730,6.033613517741430,-8.089464422,-3.5510383762500000
mp-1080782,BaClO3,['icsd-67247'],Tetragonal,P4/nmm,129,4/mmm,10,3,186.359119710526,3.93445543983132,-4.514344352,-0.79282880525
mp-1182237,BaClO3,,Monoclinic,P2_1/m,11,2/m,10,3,202.22125466266,3.62583870587884,-4.934675693,-1.21316014625
mp-1182337,BaClO3,,Triclinic,P1,1,1,10,3,203.719557647591,3.59917162973443,-4.900270702,-1.17875515525
mp-2626703,BaCO3,,Orthorhombic,Imm2,44.0,mm2,10.0,3.0,166.95671010843800,3.9253764760918100,-7.837690545000000,-2.64014923175
mp-675324,BaCO3,,Orthorhombic,Pnn2,34.0,mm2,10.0,3.0,173.1642522391650,3.784660713229560,-7.8057235790000000,-2.60818226575
mp-674478,BaCO3,,Trigonal,R-3c,167.0,-3m,10.0,3.0,177.2171227211270,3.6981073404325900,-7.83164051,-2.6340991967500000
mp-762225,BaCO3,,Monoclinic,P2_1,4.0,2,10.0,3.0,164.9460009684020,3.973227229139600,-7.868310547,-2.6707692337500000
mp-1227982,BaCO3,,Trigonal,R32,155.0,32,5.0,3.0,88.92776224512440,3.6848332052866500,-7.83249692,-2.63495560675
mp-4559,BaCO3,"['icsd-158389', 'icsd-158390']",Trigonal,R3m,160.0,3m,5.0,3.0,75.0831109614839,4.364283352094540,-7.859702646,-2.66216133275
mp-5504,BaCO3,"['icsd-158385', 'icsd-91890', 'icsd-158386', 'icsd-158379', 'icsd-158384', 'icsd-158388', 'icsd-91895', 'icsd-166090', 'icsd-15196', 'icsd-91896', 'icsd-158383', 'icsd-91894', 'icsd-158387', 'icsd-158381', 'icsd-158380', 'icsd-166091', 'icsd-91892', 'icsd-91893', 'icsd-190075', 'icsd-91891', 'icsd-91888', 'icsd-158378', 'icsd-56100', 'icsd-158382', 'icsd-26718', 'icsd-91889']",Orthorhombic,Pnma,62.0,mmm,20.0,3.0,308.7916524320890,4.244725770425250,-7.881547381,-2.6840060677500000
mp-676020,BaCO3,,Monoclinic,C2/m,12.0,2/m,10.0,3.0,167.4391229382880,3.9140669807909100,-7.847781473,-2.650240159750000
mp-2506699,BaCO3,,Monoclinic,P2_1/m,11.0,2/m,10.0,3.0,158.49142394289500,4.135037253633820,-7.877129994000000,-2.679588680750000
mp-34195,BaCO3,,Monoclinic,P2_1/m,11.0,2/m,10.0,3.0,151.32585039686000,4.330839315732280,-7.846187791,-2.6486464777500000
mp-545643,BaCO3,['icsd-91897'],Hexagonal,P6_3/mmc,194.0,6/mmm,10.0,3.0,149.78570995693700,4.375370271127710,-7.777050586,-2.5795092727500000
mp-18965,BaCoO3,"['icsd-173504', 'icsd-88670', 'icsd-192733', 'icsd-26586', 'icsd-922']",Hexagonal,P6_3/mmc,194.0,6/mmm,20.0,3.0,263.4501234018470,6.158290639687290,-6.827112947000000,-2.053641173250000
mp-1283250,BaCoO3,,Monoclinic,C2/m,12.0,2/m,20.0,3.0,275.3943444952730,5.891197337198420,-6.826057752,-2.0525859782500000
mp-1076782,BaCoO3,,Cubic,Pm-3m,221.0,m-3m,5.0,3.0,63.120523575171500,6.4258118321765200,-6.604887678,-1.8314159042500000
mp-557081,BaCrO3,['icsd-32524'],Hexagonal,P6_3/mmc,194.0,6/mmm,70.0,3.0,937.4401924422200,5.885322716359030,-7.821830158285720,-2.5394124495357200
mp-540926,BaCrO3,"['icsd-192940', 'icsd-35459', 'icsd-192939']",Hexagonal,P6_3/mmc,194.0,6/mmm,30.0,3.0,396.4708704169670,5.96383723583796,-7.819695598,-2.53727788925
mp-19271,BaCrO3,['icsd-35029'],Hexagonal,P6_3/mmc,194.0,6/mmm,20.0,3.0,270.6740991655130,5.823701509693760,-7.608645989,-2.3262282802500000
mp-1076800,BaCuO3,,Cubic,Pm-3m,221.0,m-3m,5.0,3.0,64.17733153205630,6.439350784555450,-5.835579016,-1.66392946725
mp-1183286,BaDyO3,,Cubic,Pm-3m,221.0,m-3m,5.0,3.0,86.82878720439090,6.651910634066190,-7.3938727,-3.1207071172500000
mp-1183291,BaErO3,,Cubic,Pm-3m,221.0,m-3m,5.0,3.0,84.92105246203400,6.8944015811351500,-7.430702978000000,-3.1653510012500000
mp-1183310,BaEuO3,,Cubic,Pm-3m,221.0,m-3m,5.0,3.0,87.36750141389480,6.410643365991760,-8.183482982,-2.78027440725
mp-19035,BaFeO3,"['icsd-28917', 'icsd-29096', 'icsd-28918', 'icsd-262131', 'icsd-262132']",Cubic,Pm-3m,221.0,m-3m,5.0,3.0,61.70323615127430,6.490300408521840,-7.18999273,-2.14418027325
mp-705845,BaFeO3,,Trigonal,R3m,160.0,3m,20.0,3.0,415.52427401475400,3.855106080137360,-6.7358719660000000,-1.690059509250000
mp-1192651,BaFeO3,['icsd-50869'],Hexagonal,P6_3/mmc,194.0,6/mmm,30.0,3.0,377.74301687333300,6.361031509429970,-7.196856963333330,-2.1510445065833300
mp-676865,BaGeO3,,Triclinic,P1,1.0,1,30.0,3.0,567.9852833160060,4.525060472578740,-6.521994367333330,-2.2455805815833300
mp-1016823,BaGeO3,,Cubic,Pm-3m,221.0,m-3m,5.0,3.0,63.06327955363160,6.792562890088620,-6.740814964,-2.46440117825
mp-13863,BaGeO3,['icsd-23925'],Orthorhombic,P2_12_12_1,19.0,222,20.0,3.0,345.7138411355130,4.956252732217030,-6.9731783735,-2.696764587750000
mp-1195469,BaGeS3,['icsd-252049'],Monoclinic,P2_1/c,14.0,2/m,40.0,3.0,1100.0027687662700,3.697401324024580,-5.22413866275,-1.4338681836250000
mp-998552,BaHfO3,,Cubic,Pm-3m,221.0,m-3m,5.0,3.0,72.50319461578200,8.332451498508040,-9.130724048000000,-3.7874780272500000
mp-1383356,BaHfS3,,Cubic,Pm-3m,221.0,m-3m,5.0,3.0,125.8768336086790,5.435170255671470,-6.969186516000000,-2.1120838018750000
mp-998419,BaHfS3,,Orthorhombic,Pnma,62.0,mmm,20.0,3.0,496.25011988220600,5.514654763774350,-6.9899430095,-2.132840295375
mp-998361,BaHfS3,,Orthorhombic,Cmmm,65.0,mmm,5.0,3.0,118.6370499391140,5.7668495824796500,-5.426521662000000,-0.5694189478750010
mp-998352,BaHfS3,,Trigonal,R3m,160.0,3m,5.0,3.0,125.84335405165700,5.436616236620330,-6.96909416,-2.111991445875
mp-1105549,BaHfS3,['icsd-615918'],Orthorhombic,Pnma,62.0,mmm,20.0,3.0,493.2895787527490,5.547751676715810,-6.9974492205,-2.1403465063750000
mp-1183288,BaInO3,,Cubic,Pm-3m,221.0,m-3m,5.0,3.0,78.72164877180890,6.331161973233720,-6.066852474,-2.1647075132500000
mp-1227991,BaInO3,,Orthorhombic,Amm2,38.0,mm2,10.0,3.0,158.57786982262500,6.285864600550050,-6.046394532,-2.1442495712500000
mp-5660,BaIrO3,"['icsd-248378', 'icsd-65466', 'icsd-173889']",Cubic,Pm-3m,221.0,m-3m,5.0,3.0,67.78231600459350,9.249072757378570,-7.000139584,-1.8806445332500000
mp-542897,BaIrO3,"['icsd-69720', 'icsd-161961', 'icsd-173848']",Monoclinic,C2/m,12.0,2/m,30.0,3.0,427.21633936657700,8.804769592656050,-7.127117726333330,-2.0076226755833300
mp-4307,BaIrO3,"['icsd-260303', 'icsd-173850']",Monoclinic,C2/c,15.0,2/m,30.0,3.0,426.1880020632000,8.826014378938,-7.096196429000000,-1.9767013782500000
mp-10250,BaLiF3,['icsd-45310'],Cubic,Pm-3m,221.0,m-3m,5.0,3.0,63.45348177862730,5.266935916551590,-5.655332030000000,-3.742865088166670
mp-23818,BaLiH3,"['icsd-416463', 'icsd-22315']",Cubic,Pm-3m,221.0,m-3m,5.0,3.0,64.54983172455980,3.789069851402210,-3.412171436,-0.6109562476666670
mp-632808,BaLiH3,['icsd-23977'],Cubic,Pm-3m,221.0,m-3m,5.0,3.0,129.99915167544600,1.8814262873902400,-2.791583514,0.009631674333333250
mp-1183284,BaLiO3,,Cubic,Pm-3m,221.0,m-3m,5.0,3.0,68.25756506368650,4.6773648604201500,-5.387844742,-1.654251953916670
mp-1016852,BaMnO3,,Cubic,Pm-3m,221.0,m-3m,5.0,3.0,65.61237804092860,6.080659114987640,-7.54118007,-2.3569687968362100
mp-19156,BaMnO3,"['icsd-24129', 'icsd-23873', 'icsd-10331', 'icsd-10332', 'icsd-89994']",Hexagonal,P6_3/mmc,194.0,6/mmm,10.0,3.0,138.62812636506400,5.755924357513800,-7.6671448255,-2.4829335523362100
mp-19267,BaMnO3,,Hexagonal,P6_3cm,185.0,6mm,30.0,3.0,418.53444768251100,5.719479103329140,-7.659943475,-2.475732201836210
mp-18840,BaMnO3,['icsd-66822'],Trigonal,R-3m,166.0,-3m,15.0,3.0,196.58101951817100,6.088581271505340,-7.652395308666670,-2.4681840355028700
mp-557535,BaMnO3,['icsd-10250'],Hexagonal,P6_3/mmc,194.0,6/mmm,40.0,3.0,531.0888445860150,6.009789264567700,-7.65261695575,-2.4684056825862100
mp-675227,BaMnO3,,Trigonal,R-3m,166.0,-3m,25.0,3.0,334.78723854374800,5.958508250284640,-7.65262523,-2.468413956836210
mp-35078,BaMnO3,['icsd-23874'],Hexagonal,P6_3/mmc,194.0,6/mmm,20.0,3.0,257.2383259452140,6.203842341526640,-7.6473413700000000,-2.463130096836210
mp-1205336,BaMnO3,"['icsd-89995', 'icsd-89996']",Hexagonal,P6_3mc,186.0,mm2,20.0,3.0,276.8088065448440,5.765228492121010,-7.667293149,-2.483081875836210
mp-757501,BaMnO3,,Hexagonal,P-6m2,187.0,-6m2,30.0,3.0,394.21434393129800,6.072328580617820,-7.6488827950000000,-2.464671521836210
mp-19322,BaMoO3,['icsd-43799'],Cubic,Pm-3m,221.0,m-3m,5.0,3.0,66.35139263198730,7.039066312677540,-8.038497708,-2.5175594712500000
mp-569812,BaN3Cl,['icsd-418423'],Monoclinic,P2_1/m,11,2/m,10,3,196.73487530542,3.62603688853696,-7.002047807,-1.246648532
mp-3020,BaNbO3,"['icsd-150792', 'icsd-50275']",Cubic,Pm-3m,221.0,m-3m,5.0,3.0,70.62797941745360,6.541520966089960,-8.55158716,-3.17951793725
mp-35143,BaNbS3,['icsd-659538'],Hexagonal,P6_3/mmc,194.0,6/mmm,10.0,3.0,240.11990490203700,4.514803365910810,-6.633025909,-1.7470999928750000
mp-754307,BaNdO3,,Trigonal,R-3c,167.0,-3m,10.0,3.0,187.3694230114580,5.841499662797270,-7.300780508,-2.99534280675
mp-755877,BaNdO3,,Cubic,Pm-3m,221.0,m-3m,5.0,3.0,94.61784245961690,5.783890188613710,-7.238127458000000,-2.93268975675
mp-1096852,BaNiCl3,,Hexagonal,P6_3mc,186.0,6mm,10.0,3.0,229.1948669016100,4.38153623091933,-4.450619523000000,-1.8016752030000000
mp-19138,BaNiO3,"['icsd-175', 'icsd-30661']",Hexagonal,P6_3/mmc,194.0,6/mmm,10.0,3.0,133.449151553611,6.072761251153480,-6.328400857,-1.8205653062500000
mp-19241,BaNiO3,['icsd-15761'],Hexagonal,P6_3mc,186.0,6mm,10.0,3.0,133.5298435547290,6.06909148531972,-6.328540503,-1.82070495225
mp-1120765,BaNiO3,,Cubic,Pm-3m,221.0,m-3m,5.0,3.0,65.48415898349900,6.187792965000030,-6.204349126,-1.6965135752500000
mp-8558,BaNpO3,['icsd-61316'],Cubic,Pm-3m,221.0,m-3m,5.0,3.0,85.63207796094370,8.18954193461837,-9.31906119,-3.3776970390000000
mp-781625,BaOsO3,['icsd-237730'],Cubic,Pm-3m,221.0,m-3m,5.0,3.0,67.13281089520900,9.289408158973450,-7.637092358000000,-2.03981065725
mp-8557,BaPaO3,['icsd-61315'],Cubic,Pm-3m,221.0,m-3m,5.0,3.0,90.75101233528250,7.618469715769440,-8.825384122000000,-3.57064297525
mp-22230,BaPbO3,"['icsd-154038', 'icsd-245601', 'icsd-67811', 'icsd-15933', 'icsd-252031', 'icsd-51657', 'icsd-245602', 'icsd-245600', 'icsd-154039', 'icsd-78681', 'icsd-94313', 'icsd-94312']",Orthorhombic,Imma,74.0,mmm,10.0,3.0,159.25972054852800,8.185414704735300,-6.203951158000000,-2.1096135292500000
mp-21280,BaPbO3,"['icsd-245604', 'icsd-245606', 'icsd-245607', 'icsd-72269', 'icsd-245605']",Cubic,Pm-3m,221.0,m-3m,5.0,3.0,83.00858149731610,7.852241508861980,-6.176932494,-2.0825948652500000
mp-20461,BaPbO3,"['icsd-51656', 'icsd-67299']",Monoclinic,C2/m,12.0,2/m,10.0,3.0,165.49154870311400,7.877180851020860,-6.203899323,-2.10956169425
mp-561598,BaPbO3,['icsd-51659'],Cubic,Pm-3m,221.0,m-3m,5.0,3.0,101.85659215140900,6.399226750646410,-5.108779098,-1.01444146925
mp-20991,BaPbO3,"['icsd-245603', 'icsd-51658']",Tetragonal,I4/mcm,140.0,4/mmm,10.0,3.0,159.04492951661600,8.196469151276950,-6.201109751,-2.1067721222500000
mp-1178510,BaPdO3,,Cubic,Pm-3m,221.0,m-3m,5.0,3.0,70.35635538244600,6.885721971520740,-6.073839014,-1.6860544372500000
mp-6910,BaPrO3,['icsd-163754'],Trigonal,R-3c,167.0,-3m,10.0,3.0,189.81459273707000,5.707910908447890,-7.275488560000000,-2.9674991942500000
mp-4783,BaPrO3,"['icsd-52336', 'icsd-163755']",Cubic,Pm-3m,221.0,m-3m,5.0,3.0,96.732161628463,5.600230400246310,-7.2028086380000000,-2.8948192722500000
mp-6909,BaPrO3,['icsd-163753'],Orthorhombic,Imma,74.0,mmm,10.0,3.0,189.85318606930800,5.706750605022720,-7.2814221770000000,-2.9734328112500000
mp-22705,BaPrO3,"['icsd-2753', 'icsd-163752']",Orthorhombic,Pnma,62.0,mmm,20.0,3.0,379.2913507547930,5.712994943388240,-7.2865833345000000,-2.97859396875
mp-11006,BaPS3,['icsd-412764'],Monoclinic,P2_1/c,14.0,2/m,20.0,3.0,533.9879165208710,3.290003628641810,-5.4233915645,-1.4750661550416700
mp-11008,BaPSe3,['icsd-412768'],Monoclinic,P2_1/c,14.0,2/m,20.0,3.0,594.5640041838500,4.526466315493320,-4.858490397500000,-1.294488021572920
mp-1183290,BaPtO3,,Cubic,Pm-3m,221.0,m-3m,5.0,3.0,70.864454291593,8.913980135863300,-6.279181574,-1.7131466952500000
mp-1214788,BaPtO3,,Hexagonal,P6_3/mmc,194.0,6/mmm,70.0,3.0,1042.8133825691400,8.480501764111570,-6.373782275142860,-1.8077473963928600
mp-7143,BaPuO3,['icsd-43768'],Cubic,Pm-3m,221.0,m-3m,5.0,3.0,84.09111734321920,8.47784271870357,-9.619879698,-3.4145038172500000
mp-505025,BaPuO3,['icsd-65033'],Orthorhombic,Pnma,62.0,mmm,20.0,3.0,338.38736500399900,8.427161774996330,-9.644219982,-3.4388441012500000
mp-989637,BaReN3,,Monoclinic,C2/c,15.0,2/m,20.0,3.0,383.35537609112500,6.33372480850784,-8.574175465,-0.6995780849999990
mp-1183298,BaReO3,,Cubic,Pm-3m,221.0,m-3m,5.0,3.0,67.15769002397450,9.186494240340950,-8.21331388,-2.3726002282500000
mp-1016850,BaRhO3,,Cubic,Pm-3m,221.0,m-3m,5.0,3.0,68.64174366791520,6.9727007498380600,-6.739862990000000,-1.9151932012500000
mp-7685,BaRhO3,['icsd-15520'],Hexagonal,P6_3/mmc,194.0,6/mmm,20.0,3.0,278.4995456894580,6.874242273661020,-6.8227054355,-1.9980356467500000
mp-1017591,BaRuO3,,Cubic,Pm-3m,221.0,m-3m,5.0,3.0,67.1049654561984,7.08696316067908,-7.328901740000000,-2.12221301725
mp-3598,BaRuO3,"['icsd-160287', 'icsd-173866', 'icsd-246019']",Hexagonal,P6_3/mmc,194.0,6/mmm,30.0,3.0,415.01932828972800,6.875396671955310,-7.371691194333330,-2.1650024715833300
mp-5773,BaRuO3,"['icsd-172175', 'icsd-10253', 'icsd-91075', 'icsd-51293', 'icsd-150205', 'icsd-110770']",Trigonal,R-3m,166.0,-3m,15.0,3.0,209.27383936981600,6.817437184487100,-7.395671109333330,-2.1889823865833300
mp-3597,BaRuO3,"['icsd-84652', 'icsd-172176']",Hexagonal,P6_3/mmc,194.0,6/mmm,20.0,3.0,278.8465487700890,6.821965990747580,-7.389053777000000,-2.182365054250000
mp-1183289,BaScO3,,Cubic,Pm-3m,221.0,m-3m,5.0,3.0,75.13526132667410,5.089365179865760,-7.826176444,-3.2078744082500000
mp-6989,BaSeO3,['icsd-54156'],Monoclinic,P2_1/m,11,2/m,10,3,176.759707858283,4.96556488626975,-6.369833006,-2.31884249571875
mp-7339,BaSiO3,['icsd-6245'],Orthorhombic,P2_12_12_1,19.0,222,20.0,3.0,335.46476985200600,4.22550248405267,-7.819616552500000,-3.3827447317500000
mp-12958,BaSiO3,['icsd-156705'],Trigonal,R-3m,166.0,-3m,15.0,3.0,184.40389415384800,5.765227565391800,-7.546947386666670,-3.110075565916670
mp-776076,BaSiO3,,Monoclinic,P2_1/c,14.0,2/m,40.0,3.0,643.3305773691540,4.406777069787620,-7.80272853875,-3.3658567180000000
mp-1016821,BaSiO3,,Cubic,Pm-3m,221.0,m-3m,5.0,3.0,56.48771473314590,6.273519937114950,-7.280380138,-2.84350831725
mp-18407,BaSiO3,['icsd-156706'],Hexagonal,P6_3/mmc,194.0,6/mmm,30.0,3.0,350.22197599034000,6.071180489088910,-7.433081184000000,-2.99620936325
mp-776084,BaSiO3,,Monoclinic,C2/c,15.0,2/m,30.0,3.0,518.5696943364610,4.100241203264660,-7.841648403,-3.40477658225
mp-3163,BaSnO3,"['icsd-184338', 'icsd-424820', 'icsd-185615', 'icsd-239582', 'icsd-181091', 'icsd-27049', 'icsd-43138', 'icsd-190601', 'icsd-188149', 'icsd-186899', 'icsd-180138']",Cubic,Pm-3m,221.0,m-3m,5.0,3.0,71.13628093297910,7.097114448493580,-6.741954234,-2.5882316482500000
mp-1178513,BaSnO3,,Orthorhombic,Imma,74.0,mmm,10.0,3.0,147.10169950504200,6.864126368631640,-6.741308211000000,-2.587585625250000
mp-1183370,BaSnS3,['icsd-616071'],Orthorhombic,Pnma,62.0,mmm,20.0,3.0,501.06558342019900,4.669209108430440,-5.0629518315000000,-1.3953725523750000
mp-768307,BaSO3,,Monoclinic,P2_1/m,11,2/m,10,3,171.061980784542,4.22051607423697,-6.779983659,-2.600885470875
mp-754678,BaTaO3,,Cubic,Pm-3m,221.0,m-3m,5.0,3.0,70.48829628052670,8.628535380730050,-8.995048194,-3.2716844532500000
mp-4001,BaTaS3,"['icsd-616077', 'icsd-659541', 'icsd-16083']",Hexagonal,P6_3/mmc,194.0,6/mmm,10.0,3.0,238.4304913891590,5.773115876741500,-7.022248309,-1.785027874875
mp-1078588,BaTaSe3,"['icsd-616129', 'icsd-659547']",Hexagonal,P6_3/mmc,194.0,6/mmm,10.0,3.0,271.8677044141520,6.7816541007704200,-6.417136059000000,-1.5642386584062500
mp-548824,BaTbO3,['icsd-2752'],Trigonal,R-3c,167.0,-3m,10.0,3.0,174.9224640948870,6.535941394736450,-7.402091136,-3.12340970125
mp-20129,BaTbO3,,Orthorhombic,Pnma,62.0,mmm,20.0,3.0,348.29396015201500,6.565046223874110,-7.404464976,-3.12578354125
mp-5735,BaTbO3,"['icsd-99474', 'icsd-99472', 'icsd-86736', 'icsd-86737', 'icsd-89028', 'icsd-99473']",Orthorhombic,Imma,74.0,mmm,10.0,3.0,174.47420786847700,6.5527334264151400,-7.403501586,-3.1248201512500000
mp-2929,BaTbO3,"['icsd-99477', 'icsd-99478', 'icsd-99479']",Cubic,Pm-3m,221.0,m-3m,5.0,3.0,88.21841085680290,6.479843395744580,-7.374825732,-3.0961442972500000
mp-2939,BaTbO3,"['icsd-99476', 'icsd-99475', 'icsd-59596']",Tetragonal,I4/mcm,140.0,4/mmm,10.0,3.0,173.9297807413050,6.573244495993130,-7.397871111000000,-3.119189676250000
mp-1182811,BaTbO3,,Triclinic,P-1,2.0,-1,10.0,3.0,176.3501887526240,6.483026653012640,-7.389091397,-3.1104099622500000
mp-555174,BaTcO3,['icsd-109077'],Hexagonal,P6_3/mmc,194.0,6/mmm,30.0,3.0,406.2842187794690,6.947932625573580,-7.8910644213333300,-2.4671284175833300
mp-1189614,BaThO3,['icsd-189333'],Orthorhombic,Pnma,62.0,mmm,20.0,3.0,367.7631283410380,7.537982410796210,-8.610439182,-3.7758593172500000
mp-8037,BaThO3,['icsd-29110'],Cubic,Pm-3m,221.0,m-3m,5.0,3.0,97.34330038250650,7.119627087536890,-8.527033092,-3.692453227250000
mp-558125,BaTiO3,['icsd-55221'],Orthorhombic,C222_1,20.0,222,30.0,3.0,402.91942798108100,5.76628573211291,-8.420601784,-3.4896951659166700
mp-5933,BaTiO3,"['icsd-34619', 'icsd-186528', 'icsd-75240', 'icsd-164386']",Hexagonal,P6_3/mmc,194.0,6/mmm,30.0,3.0,400.2367535081450,5.8049355247709000,-8.415504036333340,-3.4845974182500000
mp-1076932,BaTiO3,['icsd-161419'],Orthorhombic,Amm2,38.0,mm2,5.0,3.0,125.85628830095300,3.0767215794609400,-7.444891614000000,-2.5139849959166700
mp-2998,BaTiO3,"['icsd-252562', 'icsd-67519', 'icsd-27975', 'icsd-27977', 'icsd-29147', 'icsd-27971', 'icsd-31887', 'icsd-28849', 'icsd-185374', 'icsd-27966', 'icsd-27974', 'icsd-29280', 'icsd-28854', 'icsd-27965', 'icsd-29148', 'icsd-31884', 'icsd-28620', 'icsd-27973', 'icsd-29146', 'icsd-28853', 'icsd-28852', 'icsd-190924', 'icsd-290019', 'icsd-31885', 'icsd-27967', 'icsd-27970', 'icsd-31888', 'icsd-99736', 'icsd-31890', 'icsd-95437', 'icsd-186437', 'icsd-56093', 'icsd-27968', 'icsd-27976', 'icsd-27969', 'icsd-67518', 'icsd-43125', 'icsd-28850', 'icsd-187292', 'icsd-187291', 'icsd-28851', 'icsd-31889', 'icsd-28848', 'icsd-166225', 'icsd-31886', 'icsd-27972', 'icsd-100804', 'icsd-154344']",Cubic,Pm-3m,221.0,m-3m,10.0,3.0,128.738833485449,6.015663613577290,-8.409168392,-3.478261773916670
mp-5020,BaTiO3,"['icsd-73636', 'icsd-100464', 'icsd-100463', 'icsd-73631', 'icsd-186462', 'icsd-73632', 'icsd-73628', 'icsd-73633', 'icsd-186461', 'icsd-73629', 'icsd-73634', 'icsd-73635', 'icsd-186463', 'icsd-73630', 'icsd-6102']",Trigonal,R3m,160.0,3m,5.0,3.0,65.6356490658401,5.89961040436988,-8.423906982,-3.4930003639166700
mp-19990,BaTiO3,['icsd-109327'],Tetragonal,P4/mmm,123.0,4/mmm,5.0,3.0,85.16422489125650,4.546800709110380,-6.616488108,-1.6855814899166700