nsites,nelements,formula_pretty,volume,density,crystal_system,symbol,number,point_group,symprec,version,material_id,energy_per_atom,formation_energy_per_atom,e_total,e_electronic,icsd
10.0,2.0,Al2S3,217.81180719136236,2.2895301826964203,Monoclinic,Cc,9.0,m,0.1,1.16.2,mp-1228491,-5.33165007,-1.351549817875,,,
30.0,2.0,Al2S3,906.9228512983968,1.6496002035840165,Triclinic,P1,1.0,1,0.1,1.16.2,mp-1376661,-4.407767727666666,-0.4276674755416664,,,
10.0,2.0,Al2S3,171.8594901585695,2.9017117777560864,Trigonal,R-3c,167.0,-3m,0.1,1.16.2,mp-1079029,-5.298075387,-1.3179751348750002,,,['icsd-609250']
40.0,2.0,Al2S3,742.1800823566342,2.6876857440248427,Tetragonal,I4_1/amd,141.0,4/mmm,0.1,1.16.2,mp-684638,-5.3331883645,-1.353088112375,,,['icsd-609251']
10.0,2.0,Al2Se3,2844.1901584651005,0.33960900293768864,Triclinic,P1,1.0,1,0.1,1.16.2,mp-1247838,-2.906484262,0.68929295659375,,,
10.0,2.0,Al2Se3,252.55345149639967,3.8245867485017886,Monoclinic,Cc,9.0,m,0.1,1.16.2,mp-11674,-4.719107781,-1.1233305624062502,9.354686643365255,5.925161436666702,['icsd-14373']
10.0,2.0,Al2Se3,274.903610991192,3.5136409463623504,Trigonal,R3,146.0,3,0.1,1.16.2,mp-1247927,-4.638886535,-1.0431093164062504,,,
40.0,2.0,Al2Se3,902.5439246550035,4.280844654738498,Tetragonal,I4_1/amd,141.0,4/mmm,0.1,1.16.2,mp-685120,-4.69113913025,-1.09536191165625,,,
5.0,3.0,AlSiO3,45.080689872433354,3.796389442753493,Cubic,Pm-3m,221.0,m-3m,0.1,1.16.2,mp-1183132,-6.957105078,-2.1549130792499995,,,
5.0,3.0,KAlH3,63.124804004285735,1.8178167292606306,Cubic,Pm-3m,221.0,m-3m,0.1,1.16.2,mp-1097006,-3.113799198,-0.1069686156000003,,,
5.0,3.0,KAlO3,57.826543420211806,3.275849264581703,Cubic,Pm-3m,221.0,m-3m,0.1,1.16.2,mp-1184936,-6.000558207999999,-2.0613500258499995,,,
20.0,3.0,ScAlO3,191.07007935746245,4.169314922966967,Orthorhombic,Pnma,62.0,mmm,0.1,1.16.2,mp-4471,-8.654007197,-3.67038498325,,,"['icsd-66883', 'icsd-100278', 'icsd-86931', 'icsd-151951', 'icsd-66886', 'icsd-86934', 'icsd-34278', 'icsd-86933', 'icsd-66884', 'icsd-86932', 'icsd-66885']"
30.0,3.0,TiAlO3,314.38311485811244,3.893182534470985,Orthorhombic,Cmcm,63.0,mmm,0.1,1.16.2,mp-1248327,-8.424581771666668,-3.128354975583334,,,
30.0,3.0,TiAlO3,314.092720217299,3.8967819790647233,Hexagonal,P6_3cm,185.0,6mm,0.1,1.16.2,mp-1341716,-8.400689786666668,-3.104462990583334,,,
5.0,3.0,TiAlO3,57.548401321217,3.5446998346849,Cubic,Pm-3m,221.0,m-3m,0.1,1.16.2,mp-1475723,-7.6660689259999995,-2.369842129916667,,,
10.0,3.0,TiAlO3,97.84417929423466,4.169728033310165,Trigonal,R-3,148.0,-3,0.1,1.16.2,mp-774520,-8.595938124,-3.299711327916667,,,
10.0,3.0,TiAlO3,105.63784455287283,3.862097139772634,Hexagonal,P6_3/mmc,194.0,6/mmm,0.1,1.16.2,mp-1405134,-8.404063179000001,-3.1078363829166675,,,
40.0,3.0,AlVO3,430.7649427287126,3.8832711814553615,Monoclinic,Cm,8.0,m,0.1,1.16.2,mp-765647,-8.4264897375,-2.8925801307500008,,,
5.0,3.0,AlVO3,55.87365738853553,3.742320545725786,Cubic,Pm-3m,221.0,m-3m,0.1,1.16.2,mp-1395974,-7.286648706000001,-1.7527390992500016,,,
20.0,3.0,AlVO3,200.08143917242444,4.18024054354719,Orthorhombic,Pnma,62.0,mmm,0.1,1.16.2,mp-1248251,-8.363604847500001,-2.8296952407500013,,,
20.0,3.0,AlVO3,186.11277526267332,4.493987813890738,Trigonal,R-3,148.0,-3,0.1,1.16.2,mp-1178549,-8.495406463,-2.961496856250001,,,
40.0,3.0,AlVO3,430.76472283781874,3.8832731637346103,Triclinic,P1,1.0,1,0.1,1.16.2,mp-802021,-6.431849764000001,-0.897940157250001,,,
5.0,3.0,AlVO3,48.24822233179429,4.333779068004552,Cubic,Pm-3m,221.0,m-3m,0.1,1.16.2,mp-1183128,-7.805885834,-2.2719762272500006,,,
10.0,3.0,AlVO3,105.4457148889399,3.9659674407858154,Hexagonal,P6_3/mmc,194.0,6/mmm,0.1,1.16.2,mp-1384488,-8.18761932,-2.653709713250001,,,
20.0,3.0,AlVO3,184.73950209166097,4.527394166218192,Orthorhombic,Pnma,62.0,mmm,0.1,1.16.2,mp-756082,-8.4287792535,-2.8948696467500015,,,
10.0,3.0,AlCrO3,102.8053083398928,4.101895980166584,Hexagonal,P6_3/mmc,194.0,6/mmm,0.1,1.16.2,mp-1385937,-8.170159632,-2.522421745250001,,,
20.0,3.0,AlCrO3,191.0202958801217,4.4152028880097225,Orthorhombic,Pnma,62.0,mmm,0.1,1.16.2,mp-1345463,-8.3687851905,-2.7210473037500003,,,
5.0,3.0,AlCrO3,54.568296419178175,3.863934818304003,Tetragonal,P4/mmm,123.0,4/mmm,0.1,1.16.2,mp-1383064,-7.202312774000001,-1.5545748872500007,,,
30.0,3.0,AlCrO3,306.4745698006157,4.1278793339382505,Hexagonal,P6_3cm,185.0,6mm,0.1,1.16.2,mp-1251690,-8.192928276,-2.5451903892499996,,,
20.0,3.0,MnAlO3,200.7303070837377,4.298973249194269,Orthorhombic,Pnma,62.0,mmm,0.1,1.16.2,mp-1368992,-8.122675318,-2.573143866836207,,,
10.0,3.0,MnAlO3,97.49613700077627,4.425479034357374,Triclinic,P-1,2.0,-1,0.1,1.16.2,mp-774250,-8.224187442,-2.6746559908362073,,,
30.0,3.0,MnAlO3,305.460873909491,4.2375356100986075,Orthorhombic,Cmc2_1,36.0,mm2,0.1,1.16.2,mp-1258775,-8.093744239333333,-2.5442127881695398,,,
30.0,3.0,MnAlO3,309.96086581966875,4.176015340711994,Hexagonal,P6_3cm,185.0,6mm,0.1,1.16.2,mp-1260288,-8.00080468,-2.451273228836207,,,
5.0,3.0,MnAlO3,53.123452978688,4.06098517730827,Cubic,Pm-3m,221.0,m-3m,0.1,1.16.2,mp-1399724,-6.980929322,-1.4313978708362072,,,
10.0,3.0,MnAlO3,97.74293928796551,4.414304637970853,Triclinic,P-1,2.0,-1,0.1,1.16.2,mp-1405591,-3.318865026,2.2306664251637924,,,
10.0,3.0,MnAlO3,103.62430347666455,4.163763670796908,Hexagonal,P6_3/mmc,194.0,6/mmm,0.1,1.16.2,mp-1444809,-7.999472666,-2.449941214836207,,,
20.0,3.0,AlFeO3,193.12520973604154,4.499455863270265,Trigonal,R-3,148.0,-3,0.1,1.16.2,mp-1178577,-7.946164339000001,-2.535031704250001,,,
20.0,3.0,AlFeO3,179.40360141259467,4.8435948356114125,Orthorhombic,Pnma,62.0,mmm,0.1,1.16.2,mp-1254277,-7.6984840205,-2.28735138575,,,
20.0,3.0,AlFeO3,197.90872811237276,4.390702550514783,Monoclinic,P2_1/c,14.0,2/m,0.1,1.16.2,mp-1259818,-7.768090902999999,-2.3569582682499997,,,
20.0,3.0,AlFeO3,182.98391243946458,4.748823793892831,Orthorhombic,Pnma,62.0,mmm,0.1,1.16.2,mp-776154,-7.898401108,-2.4872684732500003,,,
5.0,3.0,AlFeO3,54.91632829150119,3.955828732210649,Cubic,Pm-3m,221.0,m-3m,0.1,1.16.2,mp-1421498,-6.574422203999999,-1.16328956925,,,
10.0,3.0,AlFeO3,105.2782827603756,4.126959209953927,Hexagonal,P6_3/mmc,194.0,6/mmm,0.1,1.16.2,mp-1398131,-7.713172641,-2.3020400062500004,,,
40.0,3.0,AlFeO3,410.0410451498143,4.238396948650082,Orthorhombic,Pna2_1,33.0,mm2,0.1,1.16.2,mp-21216,-7.9347613565,-2.5236287217500006,,,"['icsd-203202', 'icsd-203203']"
20.0,3.0,AlFeO3,197.55869509092065,4.398481964523095,Triclinic,P-1,2.0,-1,0.1,1.16.2,mp-1264966,-7.7426695995,-2.3315369647500006,,,
5.0,3.0,AlCoO3,50.426713548382544,4.409719414937844,Cubic,Pm-3m,221.0,m-3m,0.1,1.16.2,mp-1435808,-6.187918972,-1.0491270202500005,,,
10.0,3.0,AlCoO3,96.91991245037583,4.588688787346288,Hexagonal,P6_3/mmc,194.0,6/mmm,0.1,1.16.2,mp-1386773,-7.2293889039999994,-2.0905969522500003,,,
30.0,3.0,AlCoO3,293.4346035604501,4.5468596082602515,Hexagonal,P6_3cm,185.0,6mm,0.1,1.16.2,mp-1348445,-7.247019016666667,-2.1082270649166674,,,
20.0,3.0,AlCoO3,171.3532126131805,5.1908605476290255,Orthorhombic,Pnma,62.0,mmm,0.1,1.16.2,mp-1378752,-7.303829901499999,-2.16503794975,,,
10.0,3.0,AlCoO3,93.23909210681114,4.7698374735583196,Triclinic,P-1,2.0,-1,0.1,1.16.2,mp-1404938,-2.4112463980000003,2.7275455537499993,,,
30.0,3.0,AlCoO3,300.83541597823785,4.43500291432238,Triclinic,P1,1.0,1,0.1,1.16.2,mp-1248478,-7.235144542333334,-2.0963525905833347,,,
10.0,3.0,AlCoO3,93.23907440412557,4.769838379175772,Triclinic,P-1,2.0,-1,0.1,1.16.2,mp-776216,-7.381012708999999,-2.24222075725,,,
10.0,3.0,AlCoO3,88.02147690236615,5.052577293436306,Trigonal,R-3,148.0,-3,0.1,1.16.2,mp-1178576,-7.454490492,-2.3156985402499997,,,
20.0,3.0,AlCoO3,199.73401558336542,4.453275664965529,Monoclinic,C2/c,15.0,2/m,0.1,1.16.2,mp-756947,-7.384206743499999,-2.2454147917499996,,,
10.0,3.0,AlCoO3,93.40382959355364,4.761424852352278,Triclinic,P1,1.0,1,0.1,1.16.2,mp-754022,-7.369777194999999,-2.2309852432499993,,,
5.0,3.0,AlNiO3,49.00876957089664,4.529178568321998,Cubic,Pm-3m,221.0,m-3m,0.1,1.16.2,mp-1416557,-5.768405216,-0.8952494872500004,,,
10.0,3.0,AlNiO3,93.4651059583781,4.749782638649847,Hexagonal,P6_3/mmc,194.0,6/mmm,0.1,1.16.2,mp-1400395,-6.709563836000001,-1.8364081072500014,,,
30.0,3.0,AlNiO3,279.6365120675449,4.762671379910232,Hexagonal,P6_3cm,185.0,6mm,0.1,1.16.2,mp-1333178,-6.720091479333333,-1.846935750583333,,,
20.0,3.0,AlNiO3,178.3014862246487,4.979643714706198,Orthorhombic,Pnma,62.0,mmm,0.1,1.16.2,mp-1376903,-6.886995670499999,-2.0138399417499997,,,
5.0,3.0,AlNiO3,48.94206694176443,4.53535133823537,Cubic,Pm-3m,221.0,m-3m,0.1,1.16.2,mp-1183176,-6.2603752120000005,-1.3872194832500007,,,
20.0,3.0,AlCuO3,198.42876062512912,4.636977017852498,Monoclinic,P2_1/c,14.0,2/m,0.1,1.16.2,mp-776172,-6.593635974,-2.05666624725,,,
5.0,3.0,AlCuO3,50.618016416915935,4.544378009211107,Cubic,Pm-3m,221.0,m-3m,0.1,1.16.2,mp-1504314,-5.386731856,-0.8497621292499999,,,
20.0,3.0,AlCuO3,193.4519105341512,4.756270435164536,Orthorhombic,Pnma,62.0,mmm,0.1,1.16.2,mp-1347317,-6.495386937499999,-1.9584172107499995,,,
10.0,3.0,AlCuO3,97.00166525182577,4.742751582207296,Hexagonal,P6_3/mmc,194.0,6/mmm,0.1,1.16.2,mp-1412082,-6.475611387000001,-1.9386416602500005,,,
30.0,3.0,AlCuO3,289.82739014121466,4.762021986179602,Hexagonal,P6_3cm,185.0,6mm,0.1,1.16.2,mp-1253258,-6.510882523333334,-1.9739127965833339,,,
10.0,3.0,AlCuO3,93.92117845950877,4.8983073774801245,Trigonal,R-3,148.0,-3,0.1,1.16.2,mp-1178579,-6.567560944999999,-2.0305912182499997,,,
20.0,3.0,AlGaO3,182.42240177281883,5.268750946247227,Orthorhombic,Pnma,62.0,mmm,0.1,1.16.2,mp-756686,-7.063751335000001,-2.7410037377500003,,,
40.0,3.0,AlGaO3,394.62822780999744,4.871107205336525,Orthorhombic,Pna2_1,33.0,mm2,0.1,1.16.2,mp-772187,-7.14254157675,-2.8197939794999995,,,
40.0,3.0,AlGaO3,399.14955897707586,4.815930171239055,Orthorhombic,Pna2_1,33.0,mm2,0.1,1.16.2,mp-772898,-7.143614212,-2.82086661475,15.171922080000002,3.7237772266666664,
5.0,3.0,RbAlO3,61.35272302053714,4.34258485798466,Cubic,Pm-3m,221.0,m-3m,0.1,1.16.2,mp-975427,-5.839371856,-1.9261366487499998,,,
5.0,3.0,SrAlH3,96.41604136487081,2.0258195670881345,Cubic,Pm-3m,221.0,m-3m,0.1,1.16.2,mp-1068011,-2.9047148739999997,0.217934609666667,,,['icsd-291483']
5.0,3.0,SrAlO3,56.43579113290282,4.7842550400047905,Cubic,Pm-3m,221.0,m-3m,0.1,1.16.2,mp-978862,-7.088056108000001,-3.033029024583334,,,
20.0,3.0,YAlO3,202.91174903140487,5.36466564646124,Orthorhombic,Pnma,62.0,mmm,0.1,1.16.2,mp-3792,-8.7319481845,-3.721525569083333,15.949112836666666,4.130627356666667,"['icsd-88261', 'icsd-83029', 'icsd-99423', 'icsd-83028', 'icsd-99419', 'icsd-99421', 'icsd-99426', 'icsd-191383', 'icsd-99425', 'icsd-4115', 'icsd-99420', 'icsd-236590', 'icsd-99422', 'icsd-191100', 'icsd-83027', 'icsd-167509', 'icsd-99424']"
10.0,3.0,YAlO3,104.06847158327305,5.229987875920269,Trigonal,R-3c,167.0,-3m,0.1,1.16.2,mp-756214,-8.704976542999999,-3.694553927583333,,,
30.0,3.0,YAlO3,397.1641799747765,4.11122305652517,Orthorhombic,Cmcm,63.0,mmm,0.1,1.16.2,mp-756705,-8.690346495666667,-3.6799238802500005,,,
10.0,3.0,YAlO3,121.03513647008225,4.496849927381268,Hexagonal,P6_3/mmc,194.0,6/mmm,0.1,1.16.2,mp-7964,-8.648558362,-3.638135746583333,,,['icsd-27100']
5.0,3.0,ZrAlO3,49.523897122439884,5.572820739004825,Cubic,Pm-3m,221.0,m-3m,0.1,1.16.2,mp-972066,-8.373685417999999,-2.9470168992499994,,,
20.0,3.0,AlMoN3,297.44837391102067,3.683221138552952,Triclinic,P-1,2.0,-1,0.1,1.16.2,mp-1246835,-8.572850048,-0.6527079049999998,,,
5.0,3.0,AlMoO3,64.37132382637047,4.409089114959139,Cubic,Pm-3m,221.0,m-3m,0.1,1.16.2,mp-1433892,-7.2902197,-1.4039612852499999,,,
10.0,3.0,AlMoO3,114.37731397711198,4.962853092618609,Hexagonal,P6_3/mmc,194.0,6/mmm,0.1,1.16.2,mp-1389151,-7.929805426,-2.04354701125,,,
30.0,3.0,AlMoO3,320.8516001512004,5.307479901573396,Hexagonal,P6_3cm,185.0,6mm,0.1,1.16.2,mp-1248370,-8.046364926,-2.16010651125,,,
20.0,3.0,AlMoO3,222.55271337121226,5.101153769802972,Orthorhombic,Pnma,62.0,mmm,0.1,1.16.2,mp-1373731,-8.3337379745,-2.447479559749999,,,
10.0,3.0,AlRhO3,102.22416035606501,5.779169758653574,Hexagonal,P6_3/mmc,194.0,6/mmm,0.1,1.16.2,mp-1178547,-7.413761879000001,-2.22377191225,,,
20.0,3.0,AlPdO3,229.89356275876952,5.241057626870635,Monoclinic,C2/c,15.0,2/m,0.1,1.16.2,mp-776116,-6.687652707000001,-1.9345479522500006,,,
10.0,3.0,AlPdO3,106.52686856388705,5.655312254591946,Hexagonal,P6_3/mmc,194.0,6/mmm,0.1,1.16.2,mp-1178574,-6.726789122,-1.9736843672499993,,,
10.0,3.0,AlAgO3,116.48724396800377,5.213036809008493,Hexagonal,P6_3/mmc,194.0,6/mmm,0.1,1.16.2,mp-1404877,-5.667360678,-1.3837210845833332,,,
5.0,3.0,AlAgO3,52.77775563990637,5.752918850209689,Cubic,Pm-3m,221.0,m-3m,0.1,1.16.2,mp-1183169,-5.90149902,-1.6178594265833333,,,
20.0,3.0,AlAgO3,247.91957719409973,4.898784496633195,Orthorhombic,Pnma,62.0,mmm,0.1,1.16.2,mp-1253488,-6.0475763135000005,-1.7639367200833334,,,
20.0,3.0,AlAgO3,237.67755732530313,5.109883300879145,Orthorhombic,Pnma,62.0,mmm,0.1,1.16.2,mp-1343733,-6.0240798,-1.740440206583333,,,
30.0,3.0,AlAgO3,343.77477103566014,5.299274482147776,Hexagonal,P6_3cm,185.0,6mm,0.1,1.16.2,mp-1343327,-5.907362490666667,-1.623722897250001,,,
5.0,3.0,AlAgO3,64.17906273811799,4.730922084847537,Cubic,Pm-3m,221.0,m-3m,0.1,1.16.2,mp-1418444,-4.537316028,-0.25367643458333333,,,
20.0,3.0,AlInO3,202.9318362183001,6.212264483894981,Orthorhombic,Pnma,62.0,mmm,0.1,1.16.2,mp-1178550,-6.9170019495,-2.649536810750001,,,
5.0,3.0,AlInO3,51.258261443683864,6.1486002611286406,Cubic,Pm-3m,221.0,m-3m,0.1,1.16.2,mp-1183160,-6.512231168,-2.2447660292499996,,,
10.0,3.0,AlInO3,112.28447654040943,5.613715616053324,Hexagonal,P6_3/mmc,194.0,6/mmm,0.1,1.16.2,mp-754157,-6.945375648,-2.6779105092499997,,,
30.0,3.0,AlInS3,713.3884528706352,3.3238488292807267,Hexagonal,P6_1,169.0,6,0.1,1.16.2,mp-504482,-4.899702003,-1.1183801708749996,9.719909356678436,5.410647736666667,
30.0,3.0,AlInSe3,815.5387502722513,4.626233890351229,Hexagonal,P6_1,169.0,6,0.1,1.16.2,mp-862787,-4.374170138,-0.9771713394062507,12.409301089997475,6.941762493333333,
10.0,3.0,AlSnO3,127.22052767406466,5.056249704746504,Hexagonal,P6_3/mmc,194.0,6/mmm,0.1,1.16.2,mp-1406914,-6.533496764000001,-2.01445400025,,,
30.0,3.0,AlSnO3,355.83394483580383,5.423249508586171,Hexagonal,P6_3cm,185.0,6mm,0.1,1.16.2,mp-1248301,-6.761913550666667,-2.242870786916667,,,
20.0,3.0,AlSnO3,255.89970394060344,5.027428680722427,Monoclinic,P2_1/c,14.0,2/m,0.1,1.16.2,mp-1340379,-6.956433518,-2.43739075425,,,
5.0,3.0,AlSnO3,65.77111511498312,4.890131134048122,Cubic,Pm-3m,221.0,m-3m,0.1,1.16.2,mp-1426094,-5.873238904,-1.35419614025,,,
20.0,3.0,AlSbO3,259.2869453433543,5.039883847069207,Orthorhombic,Pnma,62.0,mmm,0.1,1.16.2,mp-1371447,-6.7929681744999995,-2.2500395337499994,,,
30.0,3.0,AlSbO3,366.00012121400067,5.355637929534241,Hexagonal,P6_3cm,185.0,6mm,0.1,1.16.2,mp-1374707,-6.726732407,-2.18380376625,,,
20.0,3.0,AlSbO3,324.7624693329945,4.02379034214076,Monoclinic,P2_1,4.0,2,0.1,1.16.2,mp-1261047,-7.070983868499999,-2.5280552277499995,,,
5.0,3.0,AlSbO3,52.901571703463354,6.1755069155456495,Cubic,Pm-3m,221.0,m-3m,0.1,1.16.2,mp-1183134,-6.813236745999999,-2.27030810525,,,
10.0,3.0,AlSbO3,136.03416288565865,4.803117319471719,Hexagonal,P6_3/mmc,194.0,6/mmm,0.1,1.16.2,mp-1384267,-6.330808508,-1.7878798672499996,,,
5.0,3.0,AlSbO3,66.5165215902092,4.911471828166962,Cubic,Pm-3m,221.0,m-3m,0.1,1.16.2,mp-1421511,-5.814324374,-1.27139573325,,,
5.0,3.0,BaAlO3,61.951203638108275,5.69066640911675,Cubic,Pm-3m,221.0,m-3m,0.1,1.16.2,mp-1183283,-6.9970890080000006,-2.8961656272500007,,,
40.0,3.0,LaAlO3,569.581153201603,4.988433941703543,Monoclinic,P2_1/c,14.0,2/m,0.1,1.16.2,mp-771698,-8.37044092625,-3.666111112499999,,,
30.0,3.0,LaAlO3,421.87864927012674,5.051188230492036,Triclinic,P-1,2.0,-1,0.1,1.16.2,mp-780421,-8.34491938,-3.640589566250001,,,
10.0,3.0,LaAlO3,108.7846540054093,6.529684685682409,Orthorhombic,Imma,74.0,mmm,0.1,1.16.2,mp-1080060,-8.426660814,-3.72233100025,,,['icsd-180417']
10.0,3.0,LaAlO3,108.66760027192305,6.536718281427916,Tetragonal,I4/mcm,140.0,4/mmm,0.1,1.16.2,mp-1080080,-8.426382429,-3.72205261525,,,"['icsd-180418', 'icsd-180416']"
30.0,3.0,LaAlO3,467.7644710119816,4.555686889341703,Triclinic,P-1,2.0,-1,0.1,1.16.2,mp-768417,-8.396395141666668,-3.6920653279166675,,,
10.0,3.0,LaAlO3,108.69536345095825,6.535048660257443,Trigonal,R-3c,167.0,-3m,0.1,1.16.2,mp-2920,-8.427286556,-3.7229567422499996,29.692662669938475,4.701084166666668,"['icsd-153826', 'icsd-164507', 'icsd-90535', 'icsd-90527', 'icsd-153824', 'icsd-90536', 'icsd-153822', 'icsd-90528', 'icsd-92554', 'icsd-164506', 'icsd-90526', 'icsd-153825', 'icsd-90532', 'icsd-180415', 'icsd-90530', 'icsd-182612', 'icsd-90534', 'icsd-90522', 'icsd-153821', 'icsd-90525', 'icsd-180175', 'icsd-164508', 'icsd-92521', 'icsd-90523', 'icsd-90529', 'icsd-153823', 'icsd-90531', 'icsd-90524', 'icsd-90533', 'icsd-92523', 'icsd-92522', 'icsd-74494', 'icsd-174022']"
30.0,3.0,LaAlO3,442.599776648795,4.814707508494951,Orthorhombic,Cmcm,63.0,mmm,0.1,1.16.2,mp-768518,-8.427126325333335,-3.722796511583334,,,
10.0,3.0,LaAlO3,123.70700827112734,5.742031104167994,Triclinic,P1,1.0,1,0.1,1.16.2,mp-696871,-8.199224974,-3.4948951602500005,,,
60.0,3.0,LaAlO3,942.8090747140237,4.520509029965628,Monoclinic,P2_1/c,14.0,2/m,0.1,1.16.2,mp-780422,-8.391749496666668,-3.6874196829166674,,,
30.0,3.0,LaAlO3,426.7858281918373,4.99310972184221,Triclinic,P-1,2.0,-1,0.1,1.16.2,mp-771703,-8.384799595333334,-3.680469781583334,,,
60.0,3.0,LaAlO3,830.9863204470903,5.128817203013931,Monoclinic,P2_1/c,14.0,2/m,0.1,1.16.2,mp-780411,-8.334391190333333,-3.6300613765833343,,,
5.0,3.0,LaAlO3,125.07172857582998,2.839688462711673,Hexagonal,P6/mmm,191.0,6/mmm,0.1,1.16.2,mp-1182592,-5.52231379,-0.8179839762499995,,,
5.0,3.0,LaAlO3,54.13665153348018,6.560522946797748,Cubic,Pm-3m,221.0,m-3m,0.1,1.16.2,mp-5304,-8.420498052000001,-3.7161682382500003,42.837842106666734,4.808813110000004,"['icsd-164509', 'icsd-90544', 'icsd-191422', 'icsd-90537', 'icsd-92556', 'icsd-164511', 'icsd-182616', 'icsd-28629', 'icsd-92560', 'icsd-191426', 'icsd-153828', 'icsd-191412', 'icsd-191410', 'icsd-90545', 'icsd-153836', 'icsd-182614', 'icsd-191423', 'icsd-191420', 'icsd-153833', 'icsd-90553', 'icsd-153829', 'icsd-90547', 'icsd-90556', 'icsd-191416', 'icsd-90542', 'icsd-191421', 'icsd-191415', 'icsd-153835', 'icsd-153832', 'icsd-191427', 'icsd-90541', 'icsd-90543', 'icsd-92557', 'icsd-153830', 'icsd-191428', 'icsd-92562', 'icsd-191419', 'icsd-90539', 'icsd-90552', 'icsd-191429', 'icsd-90551', 'icsd-92555', 'icsd-153827', 'icsd-90546', 'icsd-35551', 'icsd-170772', 'icsd-90549', 'icsd-191425', 'icsd-153834', 'icsd-191414', 'icsd-191417', 'icsd-92558', 'icsd-191418', 'icsd-191411', 'icsd-90550', 'icsd-191464', 'icsd-153831', 'icsd-182613', 'icsd-90540', 'icsd-164510', 'icsd-92559', 'icsd-182615', 'icsd-90548', 'icsd-191409', 'icsd-92561', 'icsd-90554', 'icsd-90555', 'icsd-191413', 'icsd-191424']"
20.0,3.0,CeAlO3,213.7515026909713,6.683927317617278,Orthorhombic,Imma,74.0,mmm,0.1,1.16.2,mp-19843,-8.525620271,-3.6218740472499995,,,"['icsd-245266', 'icsd-245562']"
10.0,3.0,CeAlO3,106.62207029006254,6.699830082698576,Tetragonal,I4/mcm,140.0,4/mmm,0.1,1.16.2,mp-4096,-8.520020075,-3.616273851249999,,,"['icsd-245265', 'icsd-150277', 'icsd-245264', 'icsd-245561', 'icsd-245554', 'icsd-166284']"
20.0,3.0,CeAlO3,218.92352138921584,6.526021045851421,Orthorhombic,Pnma,62.0,mmm,0.1,1.16.2,mp-776167,-8.522544917000001,-3.6187986932500005,,,
10.0,3.0,CeAlO3,106.8926141185251,6.6828728991216835,Trigonal,R-3c,167.0,-3m,0.1,1.16.2,mp-3408,-8.524981815,-3.6212355912499996,,,"['icsd-245268', 'icsd-245271', 'icsd-245269', 'icsd-245563', 'icsd-245270', 'icsd-245267']"
5.0,3.0,CeAlO3,53.243562933991896,6.708320355031181,Cubic,Pm-3m,221.0,m-3m,0.1,1.16.2,mp-5323,-8.508505242,-3.6047590182499993,,,"['icsd-245564', 'icsd-72558', 'icsd-245272', 'icsd-245273', 'icsd-245274', 'icsd-245565', 'icsd-166283']"
10.0,3.0,PrAlO3,106.22475005987332,6.74964059796787,Cubic,Pm-3m,221.0,m-3m,0.1,1.16.2,mp-8218,-8.314810974,-3.64150143025,,,"['icsd-90568', 'icsd-35549', 'icsd-90571', 'icsd-90570', 'icsd-90569', 'icsd-90567']"