material_id,formula_pretty,icsd,crystal_system,symbol,number,point_group,nsites,nelements,volume,density,energy_per_atom,formation_energy_per_atom
mp-23319,RbVCl3,"['icsd-201834', 'icsd-201830']",Hexagonal,P6_3/mmc,194.0,6/mmm,10.0,3.0,263.03230905853500,3.0652222742139100,-4.993331596000000,-1.8713215715000000
mp-556424,RbVF3,['icsd-28146'],Cubic,Pm-3m,221.0,m-3m,5.0,3.0,73.12138287356560,4.392090674799270,-6.19578712,-3.0360117110000000
mp-672346,RbVI3,"['icsd-26455', 'icsd-26456']",Hexagonal,P6_3cm,185.0,6mm,30.0,3.0,1198.3871081265900,4.299290887016230,-4.028109695666670,-1.1312018571666700
mp-19031,RbVO3,['icsd-1488'],Orthorhombic,Pbcm,57.0,mmm,20.0,3.0,343.46341930871500,3.566212186908950,-7.391282189,-2.410380933750000
mp-1076638,RbVO3,,Cubic,Pm-3m,221.0,m-3m,5.0,3.0,60.014684858942400,5.102348844183130,-7.033888604,-2.052987348750000
mp-975138,RbWO3,,Cubic,Pm-3m,221.0,m-3m,5.0,3.0,66.83879192428010,7.883131844505650,-7.797455308000000,-2.0417092207500000
mp-571418,RbYbBr3,['icsd-72341'],Orthorhombic,Pnma,62.0,mmm,20.0,3.0,683.4093989435060,4.842271370177790,-3.8065469545,-2.3707014860000000
mp-6952,RbYbF3,['icsd-49590'],Cubic,Pm-3m,221.0,m-3m,5.0,3.0,82.75522707250200,6.33077923418276,-5.5457372740000000,-3.894821423
mp-568796,RbYbI3,['icsd-86314'],Orthorhombic,Pnma,62.0,mmm,20.0,3.0,834.7483478476250,5.086331918553640,-3.2474999760000000,-1.8594516955000000
mp-980537,RbYbO3,,Cubic,Pm-3m,221.0,m-3m,5.0,3.0,93.69611779172500,5.432084051536340,-5.089377144,-1.6173354467500000
mp-975173,RbYO3,,Cubic,Pm-3m,221.0,m-3m,5.0,3.0,93.76817320196760,3.9379795044291900,-6.725543536000000,-2.268129272083330
mp-4975,RbZnF3,"['icsd-41618', 'icsd-91835', 'icsd-91836']",Hexagonal,P6_3/mmc,194.0,6/mmm,30.0,3.0,432.76486198515400,4.785687884317540,-4.391544364,-2.796601447
mp-975159,RbZnO3,,Cubic,Pm-3m,221.0,m-3m,5.0,3.0,72.20306426586800,4.573763042162010,-4.297861338,-0.8817925747500000
mp-974581,ReBiO3,,Cubic,Pm-3m,221.0,m-3m,5.0,3.0,65.13167751772740,11.299064151299600,-7.447180904,-1.2221644142500000
mp-974724,ReClO3,['icsd-416751'],Monoclinic,P2_1/c,14,2/m,20,3,382.57011136113,4.68178733708083,-7.685232689,-1.85860669325
mp-1245819,ReMoN3,,Triclinic,P-1,2.0,-1,20.0,3.0,345.80568942326800,6.226527210170410,-9.580450401500000,0.07948201250000010
mp-573051,ReO3F,['icsd-415418'],Monoclinic,P2/c,13,2/m,30,3,434.041443850741,5.81217965529677,-8.027162764,-2.18794830675
mp-974511,ReSbO3,,Cubic,Pm-3m,221.0,m-3m,5.0,3.0,63.548617356216800,9.301447388489190,-7.417569644000000,-1.1348507322500000
mp-1247323,ReWN3,,Triclinic,P-1,2.0,-1,20.0,3.0,248.14004080444000,11.03011856357080,-10.1529377205,-0.07050928250000080
mp-1246660,RhWN3,,Triclinic,P-1,2.0,-1,20.0,3.0,288.2338482219050,7.5761833791830000,-9.009417083000000,0.05696749200000110
mp-974337,RuPbO3,,Cubic,Pm-3m,221.0,m-3m,5.0,3.0,64.0068642453909,9.24271593776542,-6.871376838000000,-1.3059536892500000
mp-28109,SbAsO3,"['icsd-5286', 'icsd-37187']",Monoclinic,P2_1/c,14.0,2/m,20.0,3.0,328.7660241411090,4.943337655030770,-6.4261552835,-1.70051812775
mp-1186920,SbAuO3,,Cubic,Pm-3m,221.0,m-3m,5.0,3.0,64.11512496108020,9.497927454465970,-5.34703573,-0.8984458552500000
mp-1186948,SbPbO3,,Cubic,Pm-3m,221.0,m-3m,5.0,3.0,74.967601732332,8.349657760296940,-6.100877602,-1.56453471325
mp-1186927,SbPdO3,,Cubic,Pm-3m,221.0,m-3m,5.0,3.0,63.684440061159800,7.201204721323510,-5.742308024,-0.9125181872500000
mp-776150,ScAgO3,,Orthorhombic,Cmmm,65.0,mmm,10.0,3.0,132.01168072464600,5.0521786055660100,-6.914838808000000,-2.113820559583330
mp-4471,ScAlO3,"['icsd-66883', 'icsd-100278', 'icsd-86931', 'icsd-151951', 'icsd-66886', 'icsd-86934', 'icsd-34278', 'icsd-86933', 'icsd-66884', 'icsd-86932', 'icsd-66885']",Orthorhombic,Pnma,62.0,mmm,20.0,3.0,191.07007935746200,4.169314922966970,-8.654007197,-3.67038498325
mp-973156,ScAsO3,,Cubic,Pm-3m,221.0,m-3m,5.0,3.0,61.25659245178590,4.550762080484660,-6.919006668,-1.7526759392500000
mp-754009,ScBiO3,,Trigonal,R3c,161.0,3m,10.0,3.0,141.5365353662610,7.08472976865481,-7.797074837000000,-2.7944699632500000
mp-555769,ScBiO3,,Monoclinic,C2/c,15.0,2/m,20.0,3.0,282.20099549135200,7.106623445574230,-7.7840247885,-2.78141991475
mp-756205,ScBiO3,,Orthorhombic,Pnma,62.0,mmm,20.0,3.0,268.2267728755640,7.47686813446329,-7.7863500525000000,-2.7837451787500000
mp-555313,ScBiO3,['icsd-171385'],Monoclinic,Cc,9.0,m,20.0,3.0,282.41902134716800,7.101137173256950,-7.784773460000000,-2.7821685862500000
mp-550008,ScBiO3,"['icsd-158759', 'icsd-181118', 'icsd-181115', 'icsd-181119', 'icsd-181116', 'icsd-181120', 'icsd-181117']",Cubic,Pm-3m,221.0,m-3m,5.0,3.0,67.7074343450527,7.405007405474690,-7.461491168,-2.458886294250000
mp-1101383,ScBiO3,,Trigonal,R-3,148.0,-3,10.0,3.0,141.88024260616100,7.067566893334790,-7.744921898000000,-2.74231702425
mp-8697,ScBO3,"['icsd-195099', 'icsd-65010']",Trigonal,R-3c,167.0,-3m,10.0,3.0,100.67384890531,3.4230542310583300,-9.008089935,-3.4377045330833300
mp-1186980,ScCoO3,,Cubic,Pm-3m,221.0,m-3m,5.0,3.0,49.10300326279380,5.136443602936920,-7.7020651320000000,-2.04589452525
mp-1643785,ScCoO3,,Monoclinic,P2_1/c,14.0,2/m,20.0,3.0,202.46357062059700,4.9829172965995100,-8.1920974155,-2.5359268087500000
mp-754124,ScCoO3,,Orthorhombic,Pnma,62.0,mmm,20.0,3.0,207.5436412174170,4.860949832328610,-8.191829626500000,-2.5356590197500000
mp-18961,ScCrO3,"['icsd-85141', 'icsd-185585']",Orthorhombic,Pnma,62.0,mmm,20.0,3.0,207.8888721409460,4.6312337405873900,-9.296693205,-3.1315766632500000
mp-973068,ScCuO3,,Cubic,Pm-3m,221.0,m-3m,5.0,3.0,51.848925970517700,5.012149143668760,-6.892613322,-1.8382649402500000
mp-771123,ScFeO3,,Hexagonal,P6_3cm,185.0,6mm,30.0,3.0,342.91604718674500,4.323275167408500,-8.708788777333330,-2.7802774875833300
mp-769734,ScFeO3,,Orthorhombic,Pnma,62.0,mmm,20.0,3.0,212.22287513266600,4.657117917131760,-8.6832404825,-2.7547291927500000
mp-756419,ScFeO3,,Monoclinic,P2_1/c,14.0,2/m,20.0,3.0,201.36983821600400,4.908118132097730,-8.629074974,-2.7005636842500000
mp-754342,ScFeO3,,Hexagonal,P6_3/mmc,194.0,6/mmm,10.0,3.0,117.43344650570600,4.208115250017530,-8.694239036,-2.7657277462500000
mp-754165,ScGaO3,,Hexagonal,P6_3/mmc,194.0,6/mmm,10.0,3.0,110.7344127232280,4.878911497780490,-7.942142936000000,-3.10201668375
mp-769079,ScGaO3,,Hexagonal,P6_3cm,185.0,6mm,30.0,3.0,328.43508193907200,4.934887554450270,-7.955223722666670,-3.1150974704166700
mp-754239,ScGaO3,,Orthorhombic,Pnma,62.0,mmm,20.0,3.0,206.95704441515200,5.221019665815950,-7.8832921735,-3.0431659212500000
mp-768358,ScInO3,,Hexagonal,P6_3/mmc,194.0,6/mmm,10.0,3.0,132.6643819656350,5.201301265856920,-7.694859255,-2.91001546125
mp-18954,ScMnO3,"['icsd-79483', 'icsd-50694', 'icsd-79253']",Hexagonal,P6_3cm,185.0,6mm,30.0,3.0,332.2624241651380,4.434700161343280,-9.051214285666670,-2.9843041795028700
mp-1105811,ScMnO3,['icsd-251022'],Monoclinic,P2_1/c,14.0,2/m,20.0,3.0,218.73503434359600,4.49092583781479,-9.009025804,-2.9421156978362100
mp-1246879,ScMoN3,,Triclinic,P-1,2.0,-1,20.0,3.0,311.7739550831920,3.896915427096870,-9.3758617735,-0.9383409755000000
mp-973123,ScPdO3,,Cubic,Pm-3m,221.0,m-3m,5.0,3.0,67.8551067576614,4.879050636926510,-6.811770678000000,-1.5412872682500000
mp-1188449,ScRhO3,,Orthorhombic,Pnma,62.0,mmm,20.0,3.0,215.03220185571300,6.049931768142320,-8.189887848,-2.4825192262500000
mp-1196890,ScRhO3,"['icsd-237353', 'icsd-237348']",Monoclinic,P2_1/c,14.0,2/m,40.0,3.0,432.8519261026270,6.010970822719780,-8.21641368225,-2.5090450605
mp-1186993,ScSiO3,,Cubic,Pm-3m,221.0,m-3m,5.0,3.0,45.978363101869,4.3714258353824700,-8.084743016000000,-2.76517236225
mp-981376,ScSnO3,,Cubic,Pm-3m,221.0,m-3m,5.0,3.0,69.29637433044240,5.072076719298020,-7.307863332000000,-2.27144191325
mp-1101375,ScTiO3,,Trigonal,R-3,148.0,-3,10.0,3.0,113.47907294930600,4.121270147889130,-9.381252957,-3.5676475059166700
mp-754092,ScTiO3,,Orthorhombic,Pna2_1,33.0,mm2,20.0,3.0,214.54572810928400,4.359703825171350,-9.353816591000000,-3.540211139916670
mp-752429,ScTlO3,,Orthorhombic,Pnma,62.0,mmm,20.0,3.0,256.387499472698,7.7030337220526900,-7.165380819000000,-2.4583451419166700
mp-7276,ScUS3,"['icsd-2239', 'icsd-291232']",Orthorhombic,Cmcm,63.0,mmm,10.0,3.0,211.8109622321520,5.945328806988970,-7.974184418,-1.9675386748750000
mp-756546,ScVO3,,Orthorhombic,Pnma,62.0,mmm,20.0,3.0,215.7754359190550,4.429499293477540,-9.254299815500000,-3.203011553750000
mp-972978,ScVO3,,Cubic,Pm-3m,221.0,m-3m,5.0,3.0,54.284997039030200,4.401663411098980,-8.577903116,-2.5266148542500000
mp-1246967,ScWN3,,Triclinic,P-1,2.0,-1,20.0,3.0,321.0965329667150,5.602060709056990,-9.885290288500000,-1.0252734665000000
mp-1186999,SiAgO3,,Cubic,Pm-3m,221.0,m-3m,5.0,3.0,47.48972232323490,6.432114179278900,-6.277115192,-1.6575271585833300
mp-972827,SiBiO3,,Cubic,Pm-3m,221.0,m-3m,5.0,3.0,54.81423140456450,8.63571489384692,-6.652173252,-1.83099859325
mp-972839,SiBO3,,Cubic,Pm-3m,221.0,m-3m,5.0,3.0,42.97268208926430,3.35776211805348,-6.38929876,-1.0003435730833300
mp-972822,SiBO3,,Cubic,Pm-3m,221.0,m-3m,5.0,3.0,37.13464487955600,3.885644914566700,-6.378583398,-0.9896282110833330
mp-1209042,SiCCl3,,Monoclinic,C2/m,12.0,2/m,30.0,3.0,860.7050523856820,1.6953165112669100,-5.2240218580000000,-1.1841031575000000
mp-769171,SiGeO3,,Orthorhombic,Pbca,61.0,mmm,80.0,3.0,1025.8208654925400,3.851924206836590,-7.455841849875,-2.4781594461250000
mp-28289,SiH3F,['icsd-60065'],Monoclinic,P2_1/c,14,2/m,20,3,304.776200494886,1.09202531925881,-4.4490883065,-0.94609328
mp-28538,SiH3I,['icsd-65044'],Monoclinic,P2_1/c,14,2/m,20,3,420.542688745083,2.49570926689517,-3.7088368375,-0.2934643345
mp-1186997,SiMoO3,,Cubic,Pm-3m,221.0,m-3m,5.0,3.0,48.44761250350570,5.8961021910090700,-7.897829032,-1.6756221772500000
mp-978489,SiPbO3,,Cubic,Pm-3m,221.0,m-3m,5.0,3.0,52.65754671539650,8.93326180430379,-6.968344168,-2.1727379212500000
mp-21723,SiPbO3,"['icsd-26812', 'icsd-250220']",Monoclinic,P2/c,13.0,2/m,60.0,3.0,894.2667610519510,6.312259445639850,-7.3922961071666700,-2.5966898604166700
mp-978490,SiPdO3,,Cubic,Pm-3m,221.0,m-3m,5.0,3.0,46.58900297437680,6.504851022798700,-6.653262066000000,-1.564208871250000
mp-36053,SiPN3,,Monoclinic,Cc,9.0,m,20.0,3.0,228.86785317555900,2.9335046770286800,-8.031904856,-0.8622837936666660
mp-1219220,SiPN3,,Monoclinic,P2_1,4.0,2,10.0,3.0,113.89507069075600,2.947383559447170,-8.039083438,-0.8694623756666660
mp-776110,SiSnO3,,Monoclinic,P2/c,13.0,2/m,60.0,3.0,911.6581951128400,4.257681887947370,-7.4420375818333300,-2.587046378083330
mp-978493,SiSnO3,,Cubic,Pm-3m,221.0,m-3m,5.0,3.0,51.15649342831220,6.323000798145840,-6.9816874040000000,-2.12669620025
mp-1075933,SmAgO3,,Cubic,Pm-3m,221.0,m-3m,5.0,3.0,67.36633132962030,7.548294383676720,-6.175713672,-1.6974720175833300
mp-7405,SmAlO3,"['icsd-10334', 'icsd-164920', 'icsd-164919', 'icsd-193839']",Orthorhombic,Pnma,62.0,mmm,20.0,3.0,208.41780048360800,7.181448769432940,-8.3594037665,-3.6985581467500000
mp-1187025,SmAlO3,,Orthorhombic,Pnma,62.0,mmm,20.0,3.0,214.38642301701800,6.981513734627290,-8.354219321000000,-3.6933737012500000
mp-978503,SmBeO3,,Cubic,Pm-3m,221.0,m-3m,5.0,3.0,47.69980187266980,7.219036705560470,-7.548032662,-2.88841963525
mp-1219113,SmBiS3,,Orthorhombic,Pnma,62.0,mmm,20.0,3.0,485.9333540089200,6.22665080862403,-5.698497573,-1.5048125998750000
mp-8627,SmBO3,['icsd-40745'],Triclinic,P-1,2.0,-1,20.0,3.0,235.39413174333600,5.902162905372460,-8.7366616705,-3.4890528625833300
mp-760477,SmBO3,,Orthorhombic,Ama2,40.0,mm2,10.0,3.0,128.49753616135,5.406074521045040,-8.675841143,-3.428232335083330
mp-1173486,SmBO3,,Orthorhombic,Pnma,62.0,mmm,20.0,3.0,258.812987764772,5.368101981731310,-8.7001538265,-3.452545018583330
mp-972448,SmBS3,['icsd-710041'],Orthorhombic,Pna2_1,33.0,mm2,20.0,3.0,397.902104166193,4.296195400224130,-6.2972980275,-1.5358325262083300
mp-20016,SmCoO3,"['icsd-90969', 'icsd-291093']",Orthorhombic,Pnma,62.0,mmm,20.0,3.0,211.84902183711800,8.066922550645560,-7.906673629000000,-2.5732796162500000
mp-22549,SmCoO3,['icsd-28924'],Cubic,Pm-3m,221.0,m-3m,5.0,3.0,53.02909578224750,8.056754628664420,-7.776120518000000,-2.442726505250000
mp-19257,SmCrO3,['icsd-28934'],Cubic,Pm-3m,221.0,m-3m,5.0,3.0,58.30152946273370,7.130569291617400,-8.816893528,-2.9745535802500000
mp-1105788,SmCrO3,"['icsd-237360', 'icsd-251099', 'icsd-251100']",Orthorhombic,Pnma,62.0,mmm,20.0,3.0,227.25277373957600,7.31736891568508,-9.0141752835,-3.171835335750000
mp-15932,SmCrS3,['icsd-88977'],Orthorhombic,Pnma,62.0,mmm,20.0,3.0,378.049130336756,5.245410981210800,-7.037488724000000,-1.6812920828750000
mp-770767,SmCuO3,,Orthorhombic,Pnma,62.0,mmm,20.0,3.0,235.78125214601300,7.378061688081910,-7.1444364705,-2.41286468275
mp-1076706,SmCuO3,,Cubic,Pm-3m,221.0,m-3m,5.0,3.0,55.266503874215700,7.869181607659480,-7.020050262,-2.2884784742500000
mp-772548,SmCuO3,,Trigonal,R-3c,167.0,-3m,10.0,3.0,113.17609099040700,7.685406908840520,-7.110961194,-2.3793894062500000
mp-756452,SmDyO3,,Orthorhombic,Pnma,62.0,mmm,20.0,3.0,298.02426282522300,8.042555098332650,-8.694715268500000,-3.8616274467500000
mp-754203,SmErO3,,Orthorhombic,Pnma,62.0,mmm,20.0,3.0,290.47141479306000,8.360501076547400,-8.72604912,-3.900774904250000
mp-1105437,SmFeO3,['icsd-195645'],Orthorhombic,Pnma,62.0,mmm,20.0,3.0,323.95864237366900,5.2119534933455700,-8.075469965,-2.4697352692500000
mp-20243,SmFeO3,"['icsd-27276', 'icsd-252076', 'icsd-291099', 'icsd-189727', 'icsd-82424', 'icsd-252078', 'icsd-252077', 'icsd-93606', 'icsd-161780']",Orthorhombic,Pnma,62.0,mmm,20.0,3.0,234.87355529137700,7.188793032592720,-8.4103017015,-2.8045670057500000
mp-1099588,SmFeO3,,Cubic,Pm-3m,221.0,m-3m,5.0,3.0,59.73708222101030,7.066202913845530,-8.187931516,-2.58219682025
mp-978504,SmGaO3,,Cubic,Pm-3m,221.0,m-3m,5.0,3.0,57.60803022854420,7.727382864072240,-7.431014212000000,-2.9136645537500000
mp-1219055,SmGdS3,,Orthorhombic,Pnma,62.0,mmm,20.0,3.0,451.62413102088700,5.938867582409160,-8.620073582,-2.379261986875000
mp-978926,SmGeO3,,Cubic,Pm-3m,221.0,m-3m,5.0,3.0,61.47479159443130,7.320124011921720,-7.296009504,-2.45967347925
mp-755717,SmHoO3,,Orthorhombic,Pnma,62.0,mmm,20.0,3.0,293.35952797041700,8.225467010815880,-8.709853042,-3.8816408142500000
mp-752437,SmInO3,,Orthorhombic,Pnma,62.0,mmm,20.0,3.0,275.7659939007910,7.543226160313640,-7.3619454195000000,-2.8998782197500000
mp-1101371,SmLuO3,,Orthorhombic,Pnma,62.0,mmm,20.0,3.0,281.82743897260000,8.798590817220290,-8.7701539355,-3.954233377750000
mp-1208832,SmLuSe3,,Monoclinic,P2_1/m,11.0,2/m,20.0,3.0,521.8042975042370,7.1564507343553,-6.094963227,-2.1495090094062500
mp-1232277,SmMgS3,,Trigonal,R-3,148.0,-3,30.0,3.0,722.6671575165010,3.7342802165657300,-5.354491920333330,-1.6088487632083300
mp-1232244,SmMgS3,,Monoclinic,C2/m,12.0,2/m,10.0,3.0,271.2697787768000,3.3160613291121500,-5.28642254,-1.5407793828750000
mp-1232201,SmMgSe3,,Trigonal,R-3,148.0,-3,30.0,3.0,824.4617063966380,4.973328984440140,-4.848789734666670,-1.487469611072920
mp-1232154,SmMgSe3,,Monoclinic,C2/m,12.0,2/m,20.0,3.0,560.5813376025880,4.876270430881660,-4.7896251025,-1.4283049789062500
mp-1237966,SmMgSe3,,Monoclinic,C2/m,12.0,2/m,10.0,3.0,297.06455386314600,4.600929604537900,-4.747523801,-1.3862036774062500
mp-22203,SmMnO3,"['icsd-157391', 'icsd-95491', 'icsd-183040', 'icsd-169488', 'icsd-183039']",Orthorhombic,Pnma,62.0,mmm,20.0,3.0,231.50675196280700,7.267318238962780,-8.736108126,-2.9919746138362100
mp-1075973,SmMnO3,,Cubic,Pm-3m,221.0,m-3m,5.0,3.0,59.09464695105580,7.1175365612040400,-8.536504286,-2.7923707738362100
mp-22495,SmNiO3,"['icsd-96034', 'icsd-56609', 'icsd-56610', 'icsd-97652', 'icsd-97645', 'icsd-97655', 'icsd-97648', 'icsd-96035', 'icsd-96033', 'icsd-96036', 'icsd-97654', 'icsd-97641', 'icsd-97642', 'icsd-97646', 'icsd-97644', 'icsd-90959', 'icsd-96037', 'icsd-97650', 'icsd-97651', 'icsd-97653', 'icsd-69789', 'icsd-97647', 'icsd-88038', 'icsd-97649', 'icsd-96032', 'icsd-97643', 'icsd-97640']",Orthorhombic,Pnma,62.0,mmm,20.0,3.0,216.98020304035100,7.8688141673949400,-7.521469401000000,-2.453711611250000
mp-1099668,SmNiO3,,Cubic,Pm-3m,221.0,m-3m,5.0,3.0,54.6134402222849,7.815735873710140,-7.399777066000000,-2.3320192762500000
mp-981250,SmPuO3,,Cubic,Pm-3m,221.0,m-3m,5.0,3.0,82.5192836183423,8.90159294072665,-9.709650824,-2.944352704250000
mp-3317,SmRhO3,"['icsd-172350', 'icsd-172356']",Orthorhombic,Pnma,62.0,mmm,20.0,3.0,237.73550180216700,8.417087719860300,-7.914245706,-2.52965367825
mp-1207179,SmSbO3,,Cubic,Pm-3m,221.0,m-3m,5.0,3.0,77.80105459668390,6.832410945909320,-6.755500734,-2.0179700322500000
mp-31118,SmScO3,['icsd-99541'],Orthorhombic,Pnma,62.0,mmm,20.0,3.0,254.95794113861200,6.338811595774990,-9.1002521105,-3.92202783575
mp-1188840,SmScS3,,Orthorhombic,Pnma,62.0,mmm,20.0,3.0,438.45158688597500,4.416134161166420,-6.9904757905,-2.2983948223750000
mp-978506,SmSiO3,,Cubic,Pm-3m,221.0,m-3m,5.0,3.0,53.517592677572,7.026074818066910,-7.834020336,-2.837226276250000
mp-22416,SmTiO3,"['icsd-51181', 'icsd-51180', 'icsd-8148']",Orthorhombic,Pnma,62.0,mmm,20.0,3.0,243.42832611817200,6.71847143348329,-9.083165728,-3.5923368709166700
mp-1099583,SmTiO3,,Cubic,Pm-3m,221.0,m-3m,5.0,3.0,59.95041928908820,6.820078468672490,-8.935535380000000,-3.444706522916670
mp-754787,SmTlO3,,Orthorhombic,Pnma,62.0,mmm,20.0,3.0,299.2016143348700,8.940700349866310,-6.794826388500000,-2.4105673054166700
mp-776439,SmTmO3,,Orthorhombic,Pnma,62.0,mmm,20.0,3.0,288.6300180537110,8.452390361659020,-8.733400844,-3.926503305583330
mp-20702,SmVO3,['icsd-28929'],Cubic,Pm-3m,221.0,m-3m,5.0,3.0,59.5057310357224,6.9568406930946700,-8.679960838000000,-2.951449170250000
mp-1188225,SmVO3,"['icsd-187200', 'icsd-187199', 'icsd-187198']",Orthorhombic,Pnma,62.0,mmm,20.0,3.0,233.71479456005100,7.085078065698470,-8.9790061535,-3.250494485750000
mp-755685,SmYO3,,Orthorhombic,Pna2_1,33.0,mm2,20.0,3.0,300.61674476601400,6.347127174516110,-9.058397775,-3.853373098583330
mp-972442,SnBO3,,Cubic,Pm-3m,221.0,m-3m,5.0,3.0,42.61244452154260,6.917640374340760,-6.342363178,-1.2365572260833300
mp-772724,SnBO3,,Monoclinic,Cc,9.0,m,20.0,3.0,292.2274095202000,4.0349064744551600,-7.3803365075,-2.2745305555833300
mp-1068985,SnCCl3,['icsd-110665'],Trigonal,R3m,160.0,3m,5.0,3.0,119.77525694766500,3.2868232870485400,-3.600492902,0.1562765635000000
mp-1068389,SnCCl3,['icsd-110662'],Cubic,Pm-3m,221.0,m-3m,5.0,3.0,146.2858768609200,2.691169593371590,-3.2397360580000000,0.5170334075000000
mp-729742,SnCCl3,,Monoclinic,Cm,8.0,m,5.0,3.0,166.0981478357190,2.3701655248870200,-3.72635763,0.030411835500000000
mp-769144,SnGeO3,,Monoclinic,P2/c,13.0,2/m,60.0,3.0,970.7966069728830,4.9128359176248200,-6.60144247,-1.906909301250000
mp-1101394,SnGeO3,,Trigonal,R-3,148.0,-3,10.0,3.0,157.20695864987800,5.056354248358170,-6.498422442000000,-1.8038892732500000
mp-1187065,SnGeO3,,Cubic,Pm-3m,221.0,m-3m,5.0,3.0,57.701963183861200,6.887929191489850,-6.328173208,-1.6336400392500000
mp-5045,SnGeS3,"['icsd-637796', 'icsd-411241', 'icsd-41922']",Monoclinic,P2_1/c,14.0,2/m,20.0,3.0,531.9924307893190,3.5901240564423700,-4.8938272365,-0.6854373743750000
mp-1101720,SnPbO3,,Orthorhombic,Pbam,55.0,mmm,40.0,3.0,564.9412064548400,8.792266045783200,-6.314707455,-1.80225044325
mp-978952,SnPbO3,,Cubic,Pm-3m,221.0,m-3m,5.0,3.0,70.32588763341300,8.828742790401580,-6.2742112600000000,-1.76175424825
mp-504543,SnPbO3,['icsd-15308'],Cubic,Fd-3m,227.0,m-3m,20.0,3.0,311.1573650366710,7.981674139050670,-6.2356597515,-1.7232027397500000
mp-1188095,SnPbS3,"['icsd-648477', 'icsd-23462']",Orthorhombic,Pnma,62.0,mmm,20.0,3.0,504.4134958079260,5.558311572013090,-4.759090673,-0.7327769678750000
mp-726037,SnPO3,['icsd-25034'],Monoclinic,Cc,9.0,m,10.0,3.0,195.39734301346100,3.359908743902650,-6.779568617000000,-1.9269805179166700
mp-4252,SnPS3,"['icsd-72835', 'icsd-657344', 'icsd-39232']",Monoclinic,P2_1/c,14.0,2/m,20.0,3.0,484.4699850693270,3.3710347598918200,-5.009987266,-0.6435424735416680
mp-13923,SnPS3,"['icsd-656172', 'icsd-25357']",Monoclinic,Pc,7.0,m,20.0,3.0,491.6797092754760,3.3216037371148700,-5.017023448,-0.6505786555416670
mp-1080140,SnPS3,['icsd-648056'],Monoclinic,C2/m,12.0,2/m,10.0,3.0,270.7432356763060,3.0160774944448600,-4.971368081,-0.6049232885416670