nsites,nelements,formula_pretty,volume,density,crystal_system,symbol,number,point_group,symprec,version,material_id,energy_per_atom,formation_energy_per_atom,e_total,e_electronic,icsd
5.0,3.0,VOsO3,59.878485316366636,8.01920057245928,Cubic,Pm-3m,221.0,m-3m,0.1,1.16.2,mp-1187750,-7.86462175,-0.834353823250001,,,
5.0,3.0,VIrO3,60.57538264454688,7.981411816898523,Cubic,Pm-3m,221.0,m-3m,0.1,1.16.2,mp-972116,-7.200050698000001,-0.6475694212500016,,,
5.0,3.0,VPtO3,55.45191986776771,8.804705797753165,Cubic,Pm-3m,221.0,m-3m,0.1,1.16.2,mp-972184,-6.95606388,-0.9570427752500009,,,
20.0,3.0,TlVO3,331.92892040229884,6.069729515437828,Orthorhombic,Pbcm,57.0,mmm,0.1,1.16.2,mp-22330,-7.2685180305,-2.011194960416667,,,['icsd-6108']
10.0,3.0,TlVCl3,255.39464681426662,4.70323154496746,Hexagonal,P6_3/mmc,194.0,6/mmm,0.1,1.16.2,mp-1206817,-4.865086014,-1.4666541746666666,,,
10.0,3.0,VPbO3,145.62135938137564,6.9819006476356344,Tetragonal,P4mm,99.0,4mm,0.1,1.16.2,mp-20032,-7.642703820000001,-2.115379965250001,18.17127831333333,5.990807696666665,"['icsd-152276', 'icsd-240256', 'icsd-187636', 'icsd-187635', 'icsd-152277', 'icsd-152278']"
5.0,3.0,VPbO3,60.81770785843361,8.35869929314855,Cubic,Pm-3m,221.0,m-3m,0.1,1.16.2,mp-1070440,-7.54024152,-2.0129176652500007,,,['icsd-187637']
20.0,3.0,VBiO3,238.85016311841898,8.56291406739171,Orthorhombic,Pnma,62.0,mmm,0.1,1.16.2,mp-756282,-7.641337985000002,-2.0884457182500014,,,
5.0,3.0,VBiO3,61.15148173351132,8.361422175665389,Cubic,Pm-3m,221.0,m-3m,0.1,1.16.2,mp-1187744,-7.377992122,-1.8250998552500008,,,
5.0,3.0,AcVO3,62.471313314162764,8.6637462299545,Cubic,Pm-3m,221.0,m-3m,0.1,1.16.2,mp-1183168,-8.750861914000001,-3.1418324717500012,,,
20.0,3.0,UVS3,381.16053133197624,6.71194583734017,Orthorhombic,Pnma,62.0,mmm,0.1,1.16.2,mp-1188711,-8.075900941,-1.518967804875001,,,
20.0,3.0,UVSe3,454.38976770103494,7.6867501080450795,Orthorhombic,Pnma,62.0,mmm,0.1,1.16.2,mp-1188372,-7.424289673,-1.2516795704062502,,,"['icsd-652146', 'icsd-602308']"
20.0,3.0,PuVO3,243.51123764070616,9.354225699896658,Orthorhombic,Pnma,62.0,mmm,0.1,1.16.2,mp-1209729,-10.625839832,-2.987477725250001,,,
20.0,2.0,Cr2O3,188.93016004339384,5.343477121708722,Orthorhombic,Pbcn,60.0,mmm,0.1,1.16.2,mp-755749,-9.149907758,-2.320675543249999,,,
80.0,2.0,Cr2O3,939.4221814037928,4.29857419923411,Triclinic,P1,1.0,1,0.1,1.16.2,mp-1245247,-8.826086427749999,-1.9968542129999989,,,
40.0,2.0,Cr2O3,399.88146754527065,5.049216178933582,Cubic,Ia-3,206.0,m-3,0.1,1.16.2,mp-776873,-9.15494680975,-2.3257145949999996,,,
80.0,2.0,Cr2O3,947.2885980003241,4.262878239741241,Triclinic,P1,1.0,1,0.1,1.16.2,mp-1245257,-8.833337678,-2.0041054632499993,,,
80.0,2.0,Cr2O3,1037.3381954317922,3.892824894478775,Triclinic,P1,1.0,1,0.1,1.16.2,mp-1245327,-8.735341224874999,-1.906109010124999,,,
80.0,2.0,Cr2O3,918.1466772220085,4.3981817408397985,Triclinic,P1,1.0,1,0.1,1.16.2,mp-1245208,-8.8330576785,-2.003825463749999,,,
10.0,2.0,Cr2O3,97.6733691397389,5.16795927428444,Trigonal,R-3c,167.0,-3m,0.1,1.16.2,mp-19399,-9.19658336,-2.3673511452499993,11.049481416655212,6.317900883334218,"['icsd-167283', 'icsd-290243', 'icsd-290196', 'icsd-167273', 'icsd-173470', 'icsd-167277', 'icsd-167291', 'icsd-167270', 'icsd-167269', 'icsd-290235', 'icsd-290240', 'icsd-290241', 'icsd-167287', 'icsd-167275', 'icsd-26791', 'icsd-167278', 'icsd-167286', 'icsd-167274', 'icsd-90157', 'icsd-167276', 'icsd-290245', 'icsd-290242', 'icsd-107035', 'icsd-167282', 'icsd-167272', 'icsd-167268', 'icsd-167285', 'icsd-33642', 'icsd-90158', 'icsd-250078', 'icsd-261801', 'icsd-201102', 'icsd-167290', 'icsd-201105', 'icsd-167279', 'icsd-201103', 'icsd-290236', 'icsd-167271', 'icsd-75577', 'icsd-167289', 'icsd-167284', 'icsd-25781', 'icsd-202619', 'icsd-290237', 'icsd-626484', 'icsd-167281', 'icsd-290238', 'icsd-29298', 'icsd-626479', 'icsd-201104', 'icsd-290234', 'icsd-290239', 'icsd-167280', 'icsd-290244', 'icsd-167288']"
20.0,2.0,Cr2O3,232.47598445333713,4.342573234678696,Orthorhombic,Cmcm,63.0,mmm,0.1,1.16.2,mp-1043379,-8.8968016365,-2.0675694217499996,,,
10.0,2.0,Cr2O3,103.96313558588507,4.855297900084243,Trigonal,R-3,148.0,-3,0.1,1.16.2,mp-753829,-9.134396397,-2.3051641822499986,,,
80.0,2.0,Cr2O3,976.8060874882053,4.134061000330661,Triclinic,P1,1.0,1,0.1,1.16.2,mp-1244988,-8.7895805755,-1.9603483607499996,,,
80.0,2.0,Cr2O3,950.2555628523764,4.249568336173903,Triclinic,P1,1.0,1,0.1,1.16.2,mp-1245064,-8.834916765749998,-2.005684550999999,,,
80.0,2.0,Cr2O3,942.9781087513529,4.282364472403003,Triclinic,P1,1.0,1,0.1,1.16.2,mp-1244912,-8.773260667625,-1.9440284528749998,,,
10.0,2.0,Cr2O3,142.818822957794,3.5343520093670846,Monoclinic,C2/c,15.0,2/m,0.1,1.16.2,mp-1181863,-8.87237305,-2.04314083525,,,
80.0,2.0,Cr2O3,962.3721655005917,4.196064782349617,Triclinic,P1,1.0,1,0.1,1.16.2,mp-1245091,-8.73565630975,-1.9064240949999998,,,
10.0,2.0,Cr2S3,176.60390142171053,3.7645676404338158,Trigonal,R-3,148.0,-3,0.1,1.16.2,mp-555569,-7.337035127,-0.9939462188749999,,,"['icsd-16721', 'icsd-626604']"
10.0,2.0,Cr2S3,167.9810347137462,3.9578118660804398,Trigonal,R3,146.0,3,0.1,1.16.2,mp-849081,-7.037394107999999,-0.6943051998749994,,,
20.0,2.0,Cr2S3,335.9231865818929,3.958269979702386,Trigonal,P3,143.0,3,0.1,1.16.2,mp-849083,-7.309329175,-0.9662402668750005,,,
20.0,2.0,Cr2S3,354.2452885758627,3.753542270889839,Trigonal,P-31c,163.0,-3m,0.1,1.16.2,mp-13685,-7.336454008,-0.9933650998749997,,,['icsd-16720']
20.0,2.0,Cr2Se3,409.3704137660814,5.530752450921623,Trigonal,P-31c,163.0,-3m,0.1,1.16.2,mp-1189023,-6.767462179499999,-0.808696304906249,,,['icsd-626703']
20.0,2.0,Cr2Se3,400.7081022849926,5.650313548342619,Triclinic,P-1,2.0,-1,0.1,1.16.2,mp-1226456,-6.762148670499999,-0.8033827959062492,,,
10.0,2.0,Cr2Se3,204.47889919757165,5.53633266844788,Trigonal,R-3,148.0,-3,0.1,1.16.2,mp-2832,-6.7691940069999985,-0.8104281324062483,,,"['icsd-42705', 'icsd-106520', 'icsd-626708', 'icsd-659015']"
20.0,2.0,Cr2Se3,406.8378567993379,5.565181266767598,Triclinic,P-1,2.0,-1,0.1,1.16.2,mp-1226371,-6.764431963,-0.8056660884062495,,,
80.0,3.0,CrFeO3,1042.579330227886,3.971338978378312,Triclinic,P1,1.0,1,0.1,1.16.2,mp-1245144,-8.22247648325,-1.6298495204999994,,,
80.0,3.0,CrFeO3,1027.2413532229396,4.030635954437641,Triclinic,P1,1.0,1,0.1,1.16.2,mp-1245204,-8.24865710575,-1.6560301429999995,,,
80.0,3.0,CrFeO3,1022.7164718118642,4.048469000259947,Triclinic,P1,1.0,1,0.1,1.16.2,mp-1245147,-8.171789855750001,-1.5791628930000001,,,
80.0,3.0,CrFeO3,1025.63001342778,4.036968378438651,Triclinic,P1,1.0,1,0.1,1.16.2,mp-1245260,-8.222712766250002,-1.6300858035000005,,,
80.0,3.0,CrFeO3,1037.6192680790436,3.9903229050967735,Triclinic,P1,1.0,1,0.1,1.16.2,mp-1245072,-8.182853863375,-1.5902269006249994,,,
80.0,3.0,CrFeO3,1005.4239736004539,4.118099469379599,Triclinic,P1,1.0,1,0.1,1.16.2,mp-1244905,-8.199979077875001,-1.6073521151250005,,,
10.0,3.0,CrFeO3,100.51694794704085,5.148927639504907,Trigonal,R-3,148.0,-3,0.1,1.16.2,mp-1078458,-8.620241222,-2.0276142592499995,,,['icsd-252042']
80.0,3.0,CrFeO3,1143.7901287033228,3.6199262681864837,Triclinic,P1,1.0,1,0.1,1.16.2,mp-1244876,-7.871101631,-1.27847466825,,,
80.0,3.0,CrFeO3,991.2331187854305,4.177055683186698,Triclinic,P1,1.0,1,0.1,1.16.2,mp-1245179,-8.23121358425,-1.6385866214999993,,,
10.0,3.0,CrCoCl3,213.029918067453,3.3874650643968054,Hexagonal,P6_3/mmc,194.0,6/mmm,0.1,1.16.2,mp-1205501,-4.956122966,-0.49472791699999874,,,
10.0,3.0,CrCoBr3,258.1402917698158,4.511140548565831,Hexagonal,P6_3/mmc,194.0,6/mmm,0.1,1.16.2,mp-1206044,-4.54526904,-0.2611789889999997,,,
5.0,3.0,CrCuO3,50.60278799076263,5.3666026694627424,Cubic,Pm-3m,221.0,m-3m,0.1,1.16.2,mp-1183696,-6.743428025999999,-1.0249639712499992,,,
20.0,3.0,ZnCrO3,200.16963281443952,5.48851766439863,Orthorhombic,Pnma,62.0,mmm,0.1,1.16.2,mp-1341277,-6.9905993775,-1.8400279347500004,,,
20.0,3.0,CrGaSe3,482.7416734840412,4.934049389189811,Orthorhombic,Pnma,62.0,mmm,0.1,1.16.2,mp-8829,-5.4955389035,-0.8617633184062505,,,['icsd-66279']
5.0,3.0,CrGeO3,52.451887167378345,5.465313354129075,Cubic,Pm-3m,221.0,m-3m,0.1,1.16.2,mp-1183712,-7.3711530199999995,-1.5479247282499997,,,
5.0,3.0,RbCrO3,61.486287631130566,5.008711280005005,Cubic,Pm-3m,221.0,m-3m,0.1,1.16.2,mp-1076360,-6.653205036,-1.55847550075,,,
20.0,3.0,RbCrCl3,545.8501792217413,2.966949292635343,Monoclinic,C2/c,15.0,2/m,0.1,1.16.2,mp-30027,-4.9758304225,-1.739992118,,,['icsd-56837']
20.0,3.0,RbCrCl3,570.423405540088,2.839136310673362,Monoclinic,C2,5.0,2,0.1,1.16.2,mp-568864,-4.973847344,-1.7380090395000003,,,['icsd-8184']
10.0,3.0,RbCrCl3,277.2349363450797,2.9208256081964095,Monoclinic,C2/m,12.0,2/m,0.1,1.16.2,mp-568887,-4.967128819,-1.7312905145000002,,,['icsd-2225']
10.0,3.0,RbCrI3,396.6368627596618,4.338747844534471,Monoclinic,C2/m,12.0,2/m,0.1,1.16.2,mp-676553,-4.037549546,-1.0268134275,,,
20.0,3.0,RbCrI3,818.1720779552074,4.206712450178756,Monoclinic,C2,5.0,2,0.1,1.16.2,mp-27442,-4.0415208085000005,-1.0307846900000002,14.135022092775856,5.155206640000085,['icsd-15504']
30.0,3.0,SrCrO3,355.208570148742,5.262387804534491,Hexagonal,P6_3/mmc,194.0,6/mmm,0.1,1.16.2,mp-752441,-7.796441788,-2.5599203765833334,,,
70.0,3.0,SrCrO3,860.7115343340237,5.067403038596599,Orthorhombic,Ama2,40.0,mm2,0.1,1.16.2,mp-781082,-7.816883840285714,-2.5803624288690474,,,
5.0,3.0,SrCrO3,59.00943857782975,5.279509212613665,Cubic,Pm-3m,221.0,m-3m,0.1,1.16.2,mp-20029,-7.809627400000001,-2.573105988583334,,,"['icsd-245834', 'icsd-108903']"
20.0,3.0,SrCrO3,240.9677928762296,5.1714940139379015,Hexagonal,P6_3/mmc,194.0,6/mmm,0.1,1.16.2,mp-755321,-7.785740088500001,-2.5492186770833336,,,
30.0,3.0,SrCrO3,364.730946713303,5.124997657756186,Orthorhombic,Ama2,40.0,mm2,0.1,1.16.2,mp-761337,-7.824536523000001,-2.588015111583333,,,
30.0,3.0,SrCrO3,364.7311738206685,5.124994466571006,Orthorhombic,Cmcm,63.0,mmm,0.1,1.16.2,mp-1372100,-7.7131214539999995,-2.4766000425833323,,,
70.0,3.0,SrCrO3,862.2334892881977,5.058458409032564,Orthorhombic,Cmcm,63.0,mmm,0.1,1.16.2,mp-1325463,-7.683591969857144,-2.447070558440477,,,
20.0,3.0,SrCrO3,248.0153496233369,5.024541828978767,Orthorhombic,Ama2,40.0,mm2,0.1,1.16.2,mp-769855,-7.8119524545,-2.5754310430833334,,,
20.0,3.0,YCrO3,219.38031951097574,5.719311184536888,Orthorhombic,Pnma,62.0,mmm,0.1,1.16.2,mp-18725,-9.3922170475,-3.2003001040833334,17.124010639999998,5.248522330000001,"['icsd-185525', 'icsd-109352', 'icsd-251107', 'icsd-236372', 'icsd-192859']"
5.0,3.0,YCrO3,57.23928827956947,5.480083491421764,Cubic,Pm-3m,221.0,m-3m,0.1,1.16.2,mp-18770,-9.088909482000002,-2.8969925385833344,,,
10.0,3.0,YCrO3,129.79038974167105,4.83357942580998,Hexagonal,P6_3/mmc,194.0,6/mmm,0.1,1.16.2,mp-1387900,-9.17906091,-2.987143966583333,,,
30.0,3.0,YCrO3,385.45425811357677,4.882697318692063,Hexagonal,P6_3cm,185.0,6mm,0.1,1.16.2,mp-1336975,-9.234290786333334,-3.042373842916667,,,
20.0,3.0,ZrCrO3,249.26258918175745,5.095437039969209,Orthorhombic,Pnma,62.0,mmm,0.1,1.16.2,mp-755055,-9.6000272715,-2.991864424750001,,,
10.0,3.0,NbCrN3,113.23753899361908,5.482143982962299,Tetragonal,P4/nmm,129.0,4/mmm,0.1,1.16.2,mp-1079356,-9.338546773000001,-0.385779316,,,['icsd-191258']
5.0,3.0,CrMoO3,60.32568395170272,5.39333395535818,Trigonal,R3,146.0,3,0.1,1.16.2,mp-1226313,-8.717012552,-1.6492598092500004,,,
5.0,3.0,CrTcO3,58.98279651663666,5.5741214308376446,Cubic,Pm-3m,221.0,m-3m,0.1,1.16.2,mp-1183695,-8.371840446,-1.4010899362499998,,,
5.0,3.0,CrRhO3,60.0951043992927,5.606497365687114,Cubic,Pm-3m,221.0,m-3m,0.1,1.16.2,mp-1183719,-7.131647658,-0.7601633632499997,,,
20.0,3.0,CrInO3,221.05787380768044,6.454494653224261,Orthorhombic,Pnma,62.0,mmm,0.1,1.16.2,mp-756147,-7.5802655195,-2.13130605275,,,['icsd-185586']
20.0,3.0,CrInBr3,617.0451077727013,4.376033208199131,Monoclinic,P2_1/c,14.0,2/m,0.1,1.16.2,mp-28532,-4.437823075500001,-1.0250598375000002,,,['icsd-54136']
20.0,3.0,CrSbS3,416.3982854873654,4.306111367360514,Orthorhombic,Pnma,62.0,mmm,0.1,1.16.2,mp-9130,-6.024536980500001,-0.7862573183750001,,,['icsd-74601']
20.0,3.0,CrSbSe3,482.6282120889446,5.651366987063736,Orthorhombic,Pnma,62.0,mmm,0.1,1.16.2,mp-15236,-5.540308448999999,-0.6863518204062494,35.78788039666667,16.84407687,['icsd-84866']
10.0,3.0,CsCrCl3,292.300434333001,3.3092631291709464,Hexagonal,P6_3mc,186.0,6mm,0.1,1.16.2,mp-610955,-4.966531347,-1.7477193825862074,,,['icsd-10206']
10.0,3.0,CsCrCl3,292.36857412596044,3.3084918680833137,Hexagonal,P6_3/mmc,194.0,6/mmm,0.1,1.16.2,mp-570326,-4.966850397,-1.7480384325862068,,,['icsd-36132']
10.0,3.0,CsCrCl3,287.0896014019615,3.3693280608394924,Monoclinic,C2/m,12.0,2/m,0.1,1.16.2,mp-29616,-4.978760327,-1.7599483625862071,,,['icsd-41802']
10.0,3.0,CsCrBr3,338.5828863435895,4.164932248951431,Hexagonal,P6_3mc,186.0,6mm,0.1,1.16.2,mp-27179,-4.544500072,-1.5029931055862071,,,['icsd-2590']
20.0,3.0,CsCrI3,1240.645099010199,3.028185068035156,Orthorhombic,Cmcm,63.0,mmm,0.1,1.16.2,mp-1172893,-3.5647090384999998,-0.5709992600862066,,,
20.0,3.0,CsCrI3,823.9586842960284,4.559576875827815,Orthorhombic,Pbcn,60.0,mmm,0.1,1.16.2,mp-580597,-4.0614037855,-1.0676940070862067,,,"['icsd-23382', 'icsd-23383']"
10.0,3.0,CsCrI3,408.7614175727206,4.595471590570692,Hexagonal,P6_3/mmc,194.0,6/mmm,0.1,1.16.2,mp-27259,-4.058775547,-1.0650657685862064,,,
70.0,3.0,BaCrO3,937.4401924422201,5.885322716359031,Hexagonal,P6_3/mmc,194.0,6/mmm,0.1,1.16.2,mp-557081,-7.821830158285715,-2.5394124495357153,,,['icsd-32524']
30.0,3.0,BaCrO3,396.4708704169665,5.96383723583796,Hexagonal,P6_3/mmc,194.0,6/mmm,0.1,1.16.2,mp-540926,-7.819695598,-2.53727788925,,,"['icsd-192940', 'icsd-35459', 'icsd-192939']"
20.0,3.0,BaCrO3,270.6740991655128,5.823701509693755,Hexagonal,P6_3/mmc,194.0,6/mmm,0.1,1.16.2,mp-19271,-7.608645989,-2.3262282802499996,,,['icsd-35029']
20.0,3.0,LaCrN3,297.1601504486527,5.206290707670717,Monoclinic,C2/c,15.0,2/m,0.1,1.16.2,mp-989612,-8.9711458845,-1.051438014499999,,,
5.0,3.0,LaCrO3,60.56654511365902,6.549860163598633,Cubic,Pm-3m,221.0,m-3m,0.1,1.16.2,mp-18841,-8.991754038,-3.105929896250001,,,"['icsd-91271', 'icsd-28930', 'icsd-41061', 'icsd-59595', 'icsd-29120']"
20.0,3.0,LaCrO3,236.61766314523803,6.706217884389386,Orthorhombic,Pnma,62.0,mmm,0.1,1.16.2,mp-19281,-9.0832108625,-3.197386720750001,,,"['icsd-9938', 'icsd-108900', 'icsd-194033', 'icsd-160073', 'icsd-151219', 'icsd-81984', 'icsd-160078', 'icsd-180183', 'icsd-79344', 'icsd-89098', 'icsd-160076', 'icsd-173469', 'icsd-166837', 'icsd-100185', 'icsd-167588', 'icsd-160077', 'icsd-251092', 'icsd-251091', 'icsd-91270', 'icsd-50755', 'icsd-180184', 'icsd-51191', 'icsd-165054', 'icsd-153615', 'icsd-180177', 'icsd-237354']"
10.0,3.0,LaCrO3,117.86084206710214,6.731708243877956,Trigonal,R-3c,167.0,-3m,0.1,1.16.2,mp-19357,-9.075784438000001,-3.189960296250001,34.412508430011094,5.736839906666667,['icsd-167590']
20.0,3.0,LaCrS3,397.49337889168095,4.797413951408477,Orthorhombic,Pnma,62.0,mmm,0.1,1.16.2,mp-10328,-7.160736413,-1.7610555778750012,,,['icsd-51123']
20.0,3.0,LaCrSe3,455.701294024344,6.2352073015490275,Orthorhombic,Pnma,62.0,mmm,0.1,1.16.2,mp-1105933,-6.588914989,-1.5735571874062502,,,"['icsd-626231', 'icsd-626229']"
20.0,3.0,CeCrO3,245.02487755512755,6.508931459065264,Orthorhombic,Pnma,62.0,mmm,0.1,1.16.2,mp-780712,-9.187636586,-3.1023960342500003,,,
5.0,3.0,CeCrO3,59.618378740261385,6.687745320618523,Cubic,Pm-3m,221.0,m-3m,0.1,1.16.2,mp-20530,-9.057196486,-2.9719559342500004,,,['icsd-28931']
20.0,3.0,CeCrS3,387.85072899440706,4.937417072484672,Orthorhombic,Pnma,62.0,mmm,0.1,1.16.2,mp-21871,-7.272074480000001,-1.6729772348750003,,,['icsd-88975']
20.0,3.0,CeCrSe3,446.0415230478957,6.38826749980657,Orthorhombic,Pnma,62.0,mmm,0.1,1.16.2,mp-20170,-6.686768556999999,-1.4719943454062487,,,"['icsd-620824', 'icsd-26302']"
20.0,3.0,PrCrO3,234.03185092916053,6.837139433917559,Orthorhombic,Pnma,62.0,mmm,0.1,1.16.2,mp-1105822,-8.9801366095,-3.125332737750001,,,"['icsd-251098', 'icsd-251097']"
5.0,3.0,PrCrO3,58.71817644999847,6.812662166642102,Cubic,Pm-3m,221.0,m-3m,0.1,1.16.2,mp-19353,-8.86211335,-3.00730947825,,,['icsd-28932']
20.0,3.0,PrCrSe3,448.1941782068804,6.369317066277697,Orthorhombic,Pnma,62.0,mmm,0.1,1.16.2,mp-861512,-6.479408271999999,-1.495070740406249,,,['icsd-626544']
20.0,3.0,NdCrO3,231.44769889226694,7.009167420076486,Orthorhombic,Pnma,62.0,mmm,0.1,1.16.2,mp-19269,-8.994858331500001,-3.1426061242500003,,,"['icsd-9984', 'icsd-156320', 'icsd-79349', 'icsd-156327', 'icsd-251095', 'icsd-84769', 'icsd-38022', 'icsd-156329', 'icsd-156322', 'icsd-80332', 'icsd-156323', 'icsd-84995', 'icsd-156326', 'icsd-28488', 'icsd-251096', 'icsd-156321', 'icsd-82073', 'icsd-156328', 'icsd-156325', 'icsd-156319', 'icsd-156324']"
5.0,3.0,NdCrO3,59.40619598973787,6.826963263257871,Cubic,Pm-3m,221.0,m-3m,0.1,1.16.2,mp-19062,-8.851744172,-2.9994919647500007,,,['icsd-28933']
20.0,3.0,NdCrS3,385.8223979939419,5.034405357923975,Orthorhombic,Pnma,62.0,mmm,0.1,1.16.2,mp-15931,-7.051867253500001,-1.6857583528750006,,,['icsd-88976']
20.0,3.0,NdCrSe3,443.3092752421137,6.489460660246898,Orthorhombic,Pnma,62.0,mmm,0.1,1.16.2,mp-864797,-6.4712829375,-1.4894970704062493,,,['icsd-626422']
5.0,3.0,SmCrO3,58.30152946273373,7.130569291617402,Cubic,Pm-3m,221.0,m-3m,0.1,1.16.2,mp-19257,-8.816893528,-2.9745535802500003,,,['icsd-28934']
20.0,3.0,SmCrO3,227.25277373957564,7.31736891568508,Orthorhombic,Pnma,62.0,mmm,0.1,1.16.2,mp-1105788,-9.0141752835,-3.171835335750001,,,"['icsd-237360', 'icsd-251099', 'icsd-251100']"
20.0,3.0,SmCrS3,378.049130336756,5.245410981210801,Orthorhombic,Pnma,62.0,mmm,0.1,1.16.2,mp-15932,-7.037488724000001,-1.6812920828750009,,,['icsd-88977']
20.0,3.0,EuCrO3,223.9490845861657,7.472887885695216,Orthorhombic,Pnma,62.0,mmm,0.1,1.16.2,mp-1189762,-9.7527013635,-2.80267828275,,,"['icsd-251085', 'icsd-251086']"
5.0,3.0,EuCrO3,58.39386651041873,7.164906612742856,Cubic,Pm-3m,221.0,m-3m,0.1,1.16.2,mp-754941,-9.675087826,-2.7250647452500005,,,
20.0,3.0,GdCrO3,224.59516837845578,7.60771859687336,Orthorhombic,Pnma,62.0,mmm,0.1,1.16.2,mp-18331,-10.887914704500002,-3.174067535750001,,,"['icsd-251088', 'icsd-9985', 'icsd-251087']"
5.0,3.0,GdCrO3,58.03863768944233,7.359997181461667,Cubic,Pm-3m,221.0,m-3m,0.1,1.16.2,mp-1147577,-10.653252972,-2.9394058032499997,,,
20.0,3.0,TbCrO3,220.4416567686988,7.801541691124652,Orthorhombic,Pnma,62.0,mmm,0.1,1.16.2,mp-756124,-9.0416070835,-3.2161111427499995,,,['icsd-251101']
20.0,3.0,TbCrSe3,428.37124579971214,6.943433380239512,Orthorhombic,Pnma,62.0,mmm,0.1,1.16.2,mp-1208345,-6.405198821499999,-1.4501692209062491,,,
20.0,3.0,DyCrO3,218.53793938887344,7.978148620394884,Orthorhombic,Pnma,62.0,mmm,0.1,1.16.2,mp-19381,-9.043801588000001,-3.2238214992500005,,,"['icsd-251079', 'icsd-16506', 'icsd-16505', 'icsd-251082', 'icsd-16507', 'icsd-28248']"
40.0,3.0,DyCrS3,779.1694704678409,5.297073140046453,Orthorhombic,Pnnm,58.0,mmm,0.1,1.16.2,mp-1225651,-6.9037525545,-1.569915772374999,,,
20.0,3.0,DyCrSe3,424.9280463356147,7.055572389190425,Orthorhombic,Pnma,62.0,mmm,0.1,1.16.2,mp-1212890,-6.3886903305,-1.4391765819062499,,,
20.0,3.0,HoCrO3,216.86995599622566,8.113944214971221,Orthorhombic,Pnma,62.0,mmm,0.1,1.16.2,mp-756834,-9.045650313500001,-3.230545818750001,,,"['icsd-239908', 'icsd-236371', 'icsd-251089']"
20.0,3.0,ErCrO3,214.92554267079566,8.25931696741174,Orthorhombic,Pnma,62.0,mmm,0.1,1.16.2,mp-19063,-9.049514932000001,-3.237348449250001,,,"['icsd-28487', 'icsd-251084', 'icsd-183759', 'icsd-251083']"
20.0,3.0,TmCrO3,213.01460640525085,8.385646496521579,Orthorhombic,Pnma,62.0,mmm,0.1,1.16.2,mp-777295,-9.0432949065,-3.249505101083334,,,"['icsd-247738', 'icsd-251103', 'icsd-251104']"
5.0,3.0,TmCrO3,56.34323775911637,7.925818869102425,Cubic,Pm-3m,221.0,m-3m,0.1,1.16.2,mp-1187577,-8.644344738000001,-2.8505549325833344,,,
5.0,3.0,YbCrO3,53.91012357350054,8.409999673876554,Cubic,Pm-3m,221.0,m-3m,0.1,1.16.2,mp-1187572,-7.882208520000001,-2.6756641432500006,,,
20.0,3.0,YbCrO3,200.81078958020842,9.031070942344805,Orthorhombic,Pnma,62.0,mmm,0.1,1.16.2,mp-1207582,-8.024203040500002,-2.817658663750001,,,['icsd-251105']