nsites,nelements,formula_pretty,volume,density,crystal_system,symbol,number,point_group,symprec,version,material_id,energy_per_atom,formation_energy_per_atom,e_total,e_electronic,icsd
20.0,3.0,KMnF3,292.38735855159945,3.4309800251965643,Tetragonal,P4/mbm,127.0,4/mmm,0.1,1.16.2,mp-560382,-6.2213718495,-3.020001621186206,,,['icsd-4054']
10.0,3.0,KMnF3,145.3773548581438,3.4502456995087067,Orthorhombic,Imma,74.0,mmm,0.1,1.16.2,mp-1205353,-6.222445335000001,-3.021075106686207,,,['icsd-31820']
10.0,3.0,KMnF3,146.038551017863,3.4346245557031656,Tetragonal,I4/mcm,140.0,4/mmm,0.1,1.16.2,mp-1180746,-6.220977369000001,-3.0196071406862073,,,
20.0,3.0,KMnF3,310.3843299606014,3.232041987873104,Monoclinic,P2_1/m,11.0,2/m,0.1,1.16.2,mp-644332,-6.221057308500001,-3.0196870801862077,,,['icsd-89343']
20.0,3.0,KMnCl3,494.00859926140015,2.6944008637485743,Orthorhombic,Pnma,62.0,mmm,0.1,1.16.2,mp-23049,-4.969149527499999,-1.8055446836862064,,,"['icsd-72066', 'icsd-173939', 'icsd-32710']"
20.0,3.0,KMnCl3,488.391654678082,2.7253889041705506,Orthorhombic,Pnma,62.0,mmm,0.1,1.16.2,mp-567530,-4.9820430694999995,-1.8184382256862068,9.896266943333336,3.07343751,"['icsd-173944', 'icsd-32711']"
20.0,3.0,KMnBr3,576.4457502066115,3.8456501073133476,Orthorhombic,Pnma,62.0,mmm,0.1,1.16.2,mp-29636,-4.5483431585,-1.5620433126862068,,,['icsd-42441']
20.0,3.0,KFeO3,380.6895919360882,2.4939998362577023,Orthorhombic,Pnma,62.0,mmm,0.1,1.16.2,mp-1097023,-6.158917163,-1.2748199048500006,,,
5.0,3.0,KFeF3,72.26732624504928,3.4912019583547695,Cubic,Pm-3m,221.0,m-3m,0.1,1.16.2,mp-556891,-5.572443112,-2.5094717000999998,,,"['icsd-44784', 'icsd-107514', 'icsd-15424', 'icsd-37262']"
20.0,3.0,KFeCl3,492.9694099949901,2.7123008167977827,Orthorhombic,Pnma,62.0,mmm,0.1,1.16.2,mp-23538,-4.6039819965,-1.5787759690999998,,,"['icsd-4063', 'icsd-10134', 'icsd-10135']"
20.0,3.0,KFeBr3,584.0146847215037,3.8061248392049656,Orthorhombic,Pnma,62.0,mmm,0.1,1.16.2,mp-23348,-4.173214274,-1.3253132445999998,,,"['icsd-4064', 'icsd-35206', 'icsd-35205']"
20.0,3.0,KFeI3,648.1500424921121,4.874467314441557,Orthorhombic,Pnma,62.0,mmm,0.1,1.16.2,mp-1247740,-3.5712286395,-0.7711247981,,,
5.0,3.0,KCoO3,58.13916092561977,4.170820658065728,Cubic,Pm-3m,221.0,m-3m,0.1,1.16.2,mp-1184947,-5.643307976,-1.0315514008500002,,,
5.0,3.0,KCoF3,69.18634945992444,3.7207903201146735,Cubic,Pm-3m,221.0,m-3m,0.1,1.16.2,mp-559946,-5.243563268000001,-2.4529325391000008,,,"['icsd-15425', 'icsd-15246', 'icsd-44785', 'icsd-189368']"
10.0,3.0,KCoCl3,234.1901016569457,2.8984863099498632,Trigonal,R3c,161.0,3m,0.1,1.16.2,mp-1001793,-4.189181978,-1.4363166336,,,
5.0,3.0,KNiF3,64.38821575917798,3.991875024933351,Cubic,Pm-3m,221.0,m-3m,0.1,1.16.2,mp-560976,-5.166724965999999,-2.6417304601,7.242504610000005,2.3309588299999944,"['icsd-56098', 'icsd-37255', 'icsd-189369', 'icsd-15426', 'icsd-44786']"
30.0,3.0,KNiCl3,715.0760800661986,2.8444543645679214,Hexagonal,P6_3cm,185.0,6mm,0.1,1.16.2,mp-27366,-4.017751068333333,-1.5305219469333329,,,"['icsd-167455', 'icsd-10508']"
10.0,3.0,KCuH3,116.90322189038244,3.001902574057495,Tetragonal,I4/mcm,140.0,4/mmm,0.1,1.16.2,mp-1147650,-3.190195756,-0.11263900559999981,,,
10.0,3.0,KCuF3,194.37979222074796,2.7275226425040953,Tetragonal,I4/mcm,140.0,4/mmm,0.1,1.16.2,mp-556045,-4.417160947,-2.2283524431,,,['icsd-9856']
10.0,3.0,KCuF3,135.10356227752663,3.924213955500726,Tetragonal,I4/mcm,140.0,4/mmm,0.1,1.16.2,mp-3682,-4.54848816,-2.3596796561,,,"['icsd-158622', 'icsd-182850', 'icsd-182849', 'icsd-8000', 'icsd-21108', 'icsd-67445', 'icsd-35663', 'icsd-43618', 'icsd-67444', 'icsd-17011', 'icsd-21109', 'icsd-33537']"
10.0,3.0,KCuF3,127.64948446306602,4.1533680042454995,Cubic,Pm-3m,221.0,m-3m,0.1,1.16.2,mp-5566,-4.548677251999999,-2.3598687480999994,,,
10.0,3.0,KCuF3,132.2511341125257,4.008852461531502,Tetragonal,I4/mcm,140.0,4/mmm,0.1,1.16.2,mp-669347,-4.5508758,-2.3620672961,,,"['icsd-182850', 'icsd-43618', 'icsd-17011', 'icsd-158622', 'icsd-33537', 'icsd-67445', 'icsd-67444', 'icsd-182849', 'icsd-8000', 'icsd-35663', 'icsd-21109', 'icsd-21108']"
10.0,3.0,KCuF3,131.74277485354102,4.024321524400329,Tetragonal,P4/mbm,127.0,4/mmm,0.1,1.16.2,mp-1080828,-4.547111701,-2.3583031971,,,"['icsd-21111', 'icsd-21110']"
5.0,3.0,KCuS3,109.3156406954625,3.0204316923433856,Orthorhombic,Pmm2,25.0,mm2,0.1,1.16.2,mp-1223513,-3.971876212,-0.448085168475,,,
5.0,3.0,KCuCl3,110.45741002736315,3.1420087127911525,Cubic,Pm-3m,221.0,m-3m,0.1,1.16.2,mp-1023129,-3.6002067679999996,-1.4491636485999997,,,
20.0,3.0,KCuCl3,483.28914131718824,2.872467970229371,Monoclinic,P2_1/c,14.0,2/m,0.1,1.16.2,mp-27450,-3.614130334,-1.4630872146000002,,,"['icsd-252663', 'icsd-15590']"
20.0,3.0,KCuCl3,672.1848188118263,2.065254287127698,Monoclinic,P2_1/c,14.0,2/m,0.1,1.16.2,mp-636978,-3.5921859649999996,-1.4411428455999995,,,['icsd-109325']
5.0,3.0,KZnO3,68.34503711356686,3.7053362075224703,Cubic,Pm-3m,221.0,m-3m,0.1,1.16.2,mp-1184946,-4.385129023999999,-0.9430872858499996,,,
5.0,3.0,KZnF3,66.30309275332023,4.044777029368843,Cubic,Pm-3m,221.0,m-3m,0.1,1.16.2,mp-5878,-4.438915822,-2.8179999301,10.03590048,2.349743700000003,"['icsd-44787', 'icsd-63157', 'icsd-186223', 'icsd-186222', 'icsd-23151', 'icsd-181798', 'icsd-56097', 'icsd-15427', 'icsd-73527']"
10.0,3.0,KGeCl3,313.5309319788258,2.310196857989364,Trigonal,R3c,161.0,3m,0.1,1.16.2,mp-998613,-3.9156820329999995,-1.6598746765999994,8.771234136496806,3.235948739999999,
5.0,3.0,KGeCl3,153.00083795544327,2.3670398921308373,Monoclinic,Cm,8.0,m,0.1,1.16.2,mp-998231,-3.88745914,-1.6316517836,,,
5.0,3.0,KGeBr3,175.64051665487327,3.322678412891685,Monoclinic,Cm,8.0,m,0.1,1.16.2,mp-998412,-3.49500829,-1.4165059315999997,16.729862828314477,4.964790083166868,
10.0,3.0,KGeBr3,342.7646286889748,3.4052344044393603,Monoclinic,P2_1/m,11.0,2/m,0.1,1.16.2,mp-998612,-3.520239458,-1.4417370995999996,6.869655083333332,3.310071703333333,
5.0,3.0,KAsO3,56.77687739940846,4.738502659343299,Cubic,Pm-3m,221.0,m-3m,0.1,1.16.2,mp-1184937,-5.638646618,-1.5167299208499998,,,
120.0,3.0,KAsO3,2249.2820778793703,2.870648058156811,Monoclinic,P2_1/c,14.0,2/m,0.1,1.16.2,mp-1195114,-6.065126112250001,-1.943209415100001,,,"['icsd-194471', 'icsd-194473', 'icsd-194472']"
30.0,3.0,KAsO3,525.9776900948693,3.06899767362125,Triclinic,P-1,2.0,-1,0.1,1.16.2,mp-1192552,-6.061369838000001,-1.939453140850001,,,['icsd-194474']
20.0,3.0,KAsO3,351.1743477497047,3.0644309445752413,Orthorhombic,P2_12_12_1,19.0,222,0.1,1.16.2,mp-1105278,-6.0462133085,-1.9242966113499995,,,['icsd-194470']
40.0,3.0,KAsO3,642.3945321837153,3.3504318118245098,Orthorhombic,Pbcn,60.0,mmm,0.1,1.16.2,mp-1194970,-6.0542853325,-1.93236863535,,,['icsd-194476']
5.0,3.0,KRbO3,125.1951764956113,2.2888242955632343,Cubic,Pm-3m,221.0,m-3m,0.1,1.16.2,mp-1184957,-3.722227012,-0.33602718134999987,,,
5.0,3.0,KSrO3,113.85352482172922,2.548217758597212,Cubic,Pm-3m,221.0,m-3m,0.1,1.16.2,mp-1184959,-4.863301408,-1.3353097011833335,,,
10.0,3.0,KSrI3,443.91662097569684,3.796254243576846,Orthorhombic,Cmcm,63.0,mmm,0.1,1.16.2,mp-1205548,-3.32672278,-1.8827244899333333,9.15564537,3.2746545566666665,
5.0,3.0,KYO3,90.97581873262898,3.2124885717965657,Cubic,Pm-3m,221.0,m-3m,0.1,1.16.2,mp-1184945,-6.75570838,-2.2723211411833333,,,
5.0,3.0,KZrO3,76.13256665533781,3.889375724926838,Cubic,Pm-3m,221.0,m-3m,0.1,1.16.2,mp-1184950,-7.6996030719999995,-2.799969929849999,,,
5.0,3.0,KNbO3,66.42558683114699,4.4997993785183485,Trigonal,R3m,160.0,3m,0.1,1.16.2,mp-7375,-8.067439236,-2.85708521185,30.300251476620314,5.357641896666667,"['icsd-9534', 'icsd-190923']"
5.0,3.0,KNbO3,66.19193300770227,4.515683418789579,Tetragonal,P4mm,99.0,4mm,0.1,1.16.2,mp-4342,-8.065304770000001,-2.85495074585,12.339191386666668,5.671017736666666,"['icsd-9532', 'icsd-190921', 'icsd-9535']"
5.0,3.0,KNbO3,65.41101790884895,4.569594296132727,Cubic,Pm-3m,221.0,m-3m,0.1,1.16.2,mp-935811,-8.054525484,-2.84417145985,,,['icsd-190920']
5.0,3.0,KNbO3,66.39970574294573,4.501553297504891,Orthorhombic,Amm2,38.0,mm2,0.1,1.16.2,mp-5246,-8.067304666,-2.8569506418499997,11.877052596666665,5.620386433333333,"['icsd-190922', 'icsd-14363', 'icsd-9533']"
5.0,3.0,KMoO3,64.23163890078015,4.731924392171149,Cubic,Pm-3m,221.0,m-3m,0.1,1.16.2,mp-1040469,-7.4067366219999995,-2.0475135838499994,,,
5.0,3.0,KTcO3,58.14690296217846,5.285921582802932,Cubic,Pm-3m,221.0,m-3m,0.1,1.16.2,mp-973267,-7.249670994000001,-1.9874501888500007,,,
20.0,3.0,KTcCl3,549.3437181871276,2.9436605485037775,Monoclinic,Cc,9.0,m,0.1,1.16.2,mp-28408,-4.916588626499999,-1.5132590520999998,5.750539493333334,3.498433373333334,['icsd-63512']
5.0,3.0,KRuO3,61.12931948987885,5.111423239827205,Cubic,Pm-3m,221.0,m-3m,0.1,1.16.2,mp-973958,-6.582909454,-1.53793592985,,,
5.0,3.0,KRhO3,63.59654676556202,4.961051500094684,Cubic,Pm-3m,221.0,m-3m,0.1,1.16.2,mp-975134,-5.8521444559999996,-1.1891898658500004,,,
5.0,3.0,KPdO3,67.42291986772541,4.766060397742008,Cubic,Pm-3m,221.0,m-3m,0.1,1.16.2,mp-972985,-5.05649011,-0.8304207318499998,,,
5.0,3.0,KPdF3,80.02153630160868,4.20238862870112,Cubic,Pm-3m,221.0,m-3m,0.1,1.16.2,mp-9061,-4.51968138,-2.1147378481,,,"['icsd-6047', 'icsd-73167']"
5.0,3.0,KAgO3,73.698716327076,4.392837719467964,Cubic,Pm-3m,221.0,m-3m,0.1,1.16.2,mp-976229,-4.254392346,-0.4977881291833334,,,
5.0,3.0,KAgF3,80.24753755772119,4.220520618937506,Cubic,Pm-3m,221.0,m-3m,0.1,1.16.2,mp-13819,-4.054930302,-2.119451931433333,,,
20.0,3.0,KAgF3,315.2824008707714,4.296927274670757,Orthorhombic,Pnma,62.0,mmm,0.1,1.16.2,mp-1205357,-4.0568074439999995,-2.121329073433333,,,['icsd-189150']
5.0,3.0,KAgCl3,134.87911836873917,3.1187695649519727,Cubic,Pm-3m,221.0,m-3m,0.1,1.16.2,mp-2464440,-3.2905733759999998,-1.3928603899333332,,,
5.0,3.0,KAgCl3,129.49582650872793,3.2484204368364433,Tetragonal,P4mm,99.0,4mm,0.1,1.16.2,mp-998554,-3.292681694,-1.3949687079333337,,,
10.0,3.0,KAgCl3,255.93481633267663,3.2872189516348396,Trigonal,R3c,161.0,3m,0.1,1.16.2,mp-998750,-3.294369077,-1.3966560909333332,,,
5.0,3.0,KAgBr3,152.96654600988356,4.197615571595639,Tetragonal,P4mm,99.0,4mm,0.1,1.16.2,mp-998568,-2.951183814,-1.2307758259333332,,,
10.0,3.0,KAgBr3,300.45017184056644,4.274217927923269,Trigonal,R3c,161.0,3m,0.1,1.16.2,mp-998553,-2.955902001,-1.2354940129333332,,,
5.0,3.0,KCdN3,95.26040725410972,3.3735225210450044,Cubic,Pm-3m,221.0,m-3m,0.1,1.16.2,mp-1211584,-3.7494216719999995,1.6591330244000004,,,
5.0,3.0,KCdO3,81.73842379384307,4.053050969826186,Cubic,Pm-3m,221.0,m-3m,0.1,1.16.2,mp-1184992,-4.111037796,-0.7363668278500001,,,
20.0,3.0,KCdF3,324.86294739739833,4.263088622778992,Orthorhombic,Pnma,62.0,mmm,0.1,1.16.2,mp-9628,-4.267583105,-2.7140379831,9.351033810000002,2.325843536666667,['icsd-201329']
5.0,3.0,KCdF3,84.14795913800039,4.11453690974569,Cubic,Pm-3m,221.0,m-3m,0.1,1.16.2,mp-10175,-4.242006089999999,-2.6884609681,,,['icsd-44788']
20.0,3.0,KCdCl3,519.0218184985106,3.3000569218957216,Orthorhombic,Pnma,62.0,mmm,0.1,1.16.2,mp-23442,-3.336589126,-1.8208093885999996,9.10301663,3.00814819,"['icsd-33281', 'icsd-31357']"
5.0,3.0,KInO3,79.97569649952503,4.192360054844873,Cubic,Pm-3m,221.0,m-3m,0.1,1.16.2,mp-974734,-5.021622034,-1.28119227185,,,
10.0,3.0,KInF3,203.3392813139331,3.4447530159769757,Cubic,Fm-3m,225.0,m-3m,0.1,1.16.2,mp-1112296,-4.625288278,-2.7059843620999997,,,
10.0,3.0,KInCl3,336.82650816696275,2.566290320040948,Cubic,Fm-3m,225.0,m-3m,0.1,1.16.2,mp-1112170,-3.6100350659999996,-1.7284965345999996,,,
20.0,3.0,KInBr3,697.2808897524967,3.7496233123575533,Trigonal,P-3,147.0,-3,0.1,1.16.2,mp-28529,-3.2797647855000003,-1.5755312521,8.310254193333336,3.408082183333334,['icsd-50510']
10.0,3.0,KInBr3,387.26526885221557,3.3756457004605727,Cubic,Fm-3m,225.0,m-3m,0.1,1.16.2,mp-1110931,-3.211932292,-1.5076987586000001,,,
10.0,3.0,KInI3,468.89161115328875,3.786689710385116,Cubic,Fm-3m,225.0,m-3m,0.1,1.16.2,mp-1112169,-2.742072924,-1.0856365785999997,,,
10.0,3.0,KSnN3,311.94504449458685,2.127444373118929,Trigonal,P-3,147.0,-3,0.1,1.16.2,mp-1079672,-4.331909158,1.6939819574000006,,,['icsd-92495']
40.0,3.0,KSnF3,736.4129577677159,3.8748869429437436,Triclinic,P-1,2.0,-1,0.1,1.16.2,mp-28774,-4.96624150775,-2.79535996685,,,['icsd-72472']
20.0,3.0,KSnBr3,665.0417230363074,3.970265113008643,Orthorhombic,Pnma,62.0,mmm,0.1,1.16.2,mp-1097014,-3.5093666545,-1.5535554960999995,,,
20.0,3.0,KSnI3,836.2062838205491,4.277587265101873,Orthorhombic,Pnma,62.0,mmm,0.1,1.16.2,mp-1097015,-3.0666965065,-1.1586825361,,,
60.0,3.0,KSbO3,884.6548224253007,4.704402694997494,Cubic,Pn-3,201.0,m-3,0.1,1.16.2,mp-14607,-6.051586918333333,-2.0356936541833335,,,['icsd-41203']
10.0,3.0,KSbO3,161.36158055764503,4.298599163007658,Triclinic,P-1,2.0,-1,0.1,1.16.2,mp-635067,-5.157419805,-1.1415265408499997,,,
10.0,3.0,KSbO3,183.04675960486958,3.789352822327881,Triclinic,P-1,2.0,-1,0.1,1.16.2,mp-1180714,-5.2545798150000005,-1.2386865508500002,,,
20.0,3.0,KSbO3,300.17961160744926,4.621424829037074,Cubic,Fd-3m,227.0,m-3m,0.1,1.16.2,mp-16293,-6.0252549989999995,-2.0093617348499997,,,['icsd-77333']
10.0,3.0,KSbO3,179.55735057177304,3.86299281493033,Triclinic,P-1,2.0,-1,0.1,1.16.2,mp-695836,-5.305372768,-1.28947950385,,,
10.0,3.0,KSbO3,153.64624010469555,4.514453166273659,Trigonal,R-3,148.0,-3,0.1,1.16.2,mp-547792,-6.069977969,-2.0540847048499997,7.636851476666668,3.2036926600000015,"['icsd-33546', 'icsd-5311']"
5.0,3.0,CsKO3,90.71143373223842,4.027296458972959,Cubic,Pm-3m,221.0,m-3m,0.1,1.16.2,mp-984357,-3.7879765499999998,-0.4188030594362068,,,
20.0,3.0,KBaN3,609.312468652378,2.3812880207183853,Orthorhombic,F222,22.0,222,0.1,1.16.2,mp-1223538,-4.250331078,1.3574406544000006,,,
5.0,3.0,KBaO3,126.03265569426269,2.9568843658831954,Cubic,Pm-3m,221.0,m-3m,0.1,1.16.2,mp-973447,-4.821337168,-1.2474491638500005,,,
5.0,3.0,KGdO3,88.77383613989274,4.5705686121030915,Cubic,Pm-3m,221.0,m-3m,0.1,1.16.2,mp-1184987,-8.327219786,-2.3219023218500006,,,
5.0,3.0,KTbO3,90.81213175146713,4.498615826795687,Cubic,Pm-3m,221.0,m-3m,0.1,1.16.2,mp-981313,-6.395549704,-2.2785834678499994,,,
5.0,3.0,KDyO3,89.23312572862054,4.644740792753513,Cubic,Pm-3m,221.0,m-3m,0.1,1.16.2,mp-1184954,-6.4084293080000005,-2.296978923850001,,,
20.0,3.0,KDyBr3,682.280243482244,4.29625802970821,Orthorhombic,Pnma,62.0,mmm,0.1,1.16.2,mp-1211599,-3.9942476695000004,-1.9189935141000003,,,
10.0,3.0,KDyI3,399.10863379932886,4.8455546260110784,Orthorhombic,Cmcm,63.0,mmm,0.1,1.16.2,mp-1206220,-3.513893937,-1.4864369696000004,,,
5.0,3.0,KHoO3,88.02337641990908,4.754423171005628,Cubic,Pm-3m,221.0,m-3m,0.1,1.16.2,mp-1184944,-6.420753736,-2.31417894585,,,
5.0,3.0,KErO3,86.7329373460614,4.869744499362977,Cubic,Pm-3m,221.0,m-3m,0.1,1.16.2,mp-973830,-6.434016167999999,-2.3303793898499996,,,
5.0,3.0,KTmO3,85.9074501087085,4.94891881514753,Cubic,Pm-3m,221.0,m-3m,0.1,1.16.2,mp-1184949,-6.441807396,-2.3565472951833337,,,
20.0,3.0,KTmBr3,663.8926972709666,4.479623009964921,Orthorhombic,Pnma,62.0,mmm,0.1,1.16.2,mp-1211295,-3.923228509,-1.8741646369333331,,,
10.0,3.0,KTmI3,386.92265638064936,5.053390305992179,Orthorhombic,Cmcm,63.0,mmm,0.1,1.16.2,mp-570303,-3.4405586149999996,-1.439291930933333,,,['icsd-72343']
5.0,3.0,KYbO3,90.08017018668241,4.795359733483868,Cubic,Pm-3m,221.0,m-3m,0.1,1.16.2,mp-1184953,-5.116595602,-1.6185809298500005,,,
20.0,3.0,KYbBr3,652.6613846107211,4.5984952877361,Orthorhombic,Pnma,62.0,mmm,0.1,1.16.2,mp-1211270,-3.820592342,-2.3587738986,,,
10.0,3.0,KYbI3,398.96542643446105,4.935031257989631,Orthorhombic,Cmcm,63.0,mmm,0.1,1.16.2,mp-1206621,-3.2546871599999996,-1.8406659045999993,,,
5.0,3.0,KLuO3,83.77670255820917,5.194363902990446,Cubic,Pm-3m,221.0,m-3m,0.1,1.16.2,mp-1184941,-6.4784845660000006,-2.3842014458500005,,,
5.0,3.0,KHfO3,72.92743889412984,6.047336441525025,Cubic,Pm-3m,221.0,m-3m,0.1,1.16.2,mp-998227,-8.12971787,-2.94818704785,,,
5.0,3.0,KTaO3,63.7546200303669,6.981426041917768,Cubic,Pm-3m,221.0,m-3m,0.1,1.16.2,mp-3614,-8.640023914,-3.0783753718499995,8.810066896666662,5.481165509999993,"['icsd-184922', 'icsd-56440', 'icsd-280424', 'icsd-181838', 'icsd-39673', 'icsd-39905', 'icsd-56439']"
5.0,3.0,KWO3,64.82668610173054,6.940053084185971,Cubic,Pm-3m,221.0,m-3m,0.1,1.16.2,mp-1040472,-7.920365188000001,-2.1386461258500007,,,
5.0,3.0,KReO3,61.11912479420659,7.425354016710841,Cubic,Pm-3m,221.0,m-3m,0.1,1.16.2,mp-973471,-7.766516009999999,-2.08751755685,,,
5.0,3.0,KOsO3,60.75217475613986,7.580164649281197,Cubic,Pm-3m,221.0,m-3m,0.1,1.16.2,mp-1185009,-7.065703603999999,-1.6301371018499993,,,
60.0,3.0,KIrO3,853.9289617818224,6.517792453521896,Cubic,Pn-3,201.0,m-3,0.1,1.16.2,mp-639811,-6.4726157073333335,-1.5148358551833334,,,['icsd-4200']
5.0,3.0,KPtO3,66.25367573946053,7.072388646410466,Cubic,Pm-3m,221.0,m-3m,0.1,1.16.2,mp-974842,-5.359969388,-0.9556497078499995,,,
5.0,3.0,KAuO3,71.87610219949094,6.562651688367877,Cubic,Pm-3m,221.0,m-3m,0.1,1.16.2,mp-1184942,-4.400781534,-0.5559121178499999,,,
5.0,3.0,KAuF3,90.180581563584,5.396258273551395,Cubic,Pm-3m,221.0,m-3m,0.1,1.16.2,mp-1111868,-3.9144346079999996,-1.8906910381,,,
5.0,3.0,KAuCl3,135.6759101875909,4.190929775408473,Cubic,Pm-3m,221.0,m-3m,0.1,1.16.2,mp-1110854,-3.282036358,-1.2960581726,,,
5.0,3.0,KAuBr3,158.63720916259328,4.980206611863565,Cubic,Pm-3m,221.0,m-3m,0.1,1.16.2,mp-1112174,-2.96675448,-1.1580812926,,,
20.0,3.0,KAuI3,804.8974507267882,5.089763555767355,Monoclinic,P2_1/c,14.0,2/m,0.1,1.16.2,mp-31045,-2.6822722370000003,-0.9213962376000001,14.375993496666666,6.586365550000001,['icsd-32036']
5.0,3.0,KTlO3,85.80387530056791,5.64092930918647,Cubic,Pm-3m,221.0,m-3m,0.1,1.16.2,mp-984454,-4.464268248,-0.8016466025166664,,,
10.0,3.0,KTlF3,220.04713226360937,4.534969175152891,Cubic,Fm-3m,225.0,m-3m,0.1,1.16.2,mp-1111295,-4.287616186999999,-2.4461203877666664,,,
10.0,3.0,KTlCl3,352.89437515010235,3.2923391489914797,Cubic,Fm-3m,225.0,m-3m,0.1,1.16.2,mp-1111296,-3.391741491,-1.5880110762666664,,,
10.0,3.0,KTlBr3,405.140615144015,3.9609055204000154,Cubic,Fm-3m,225.0,m-3m,0.1,1.16.2,mp-1111155,-3.024775913,-1.3983504962666669,,,
10.0,3.0,KTlI3,493.94441032437635,4.196829350092661,Cubic,Fm-3m,225.0,m-3m,0.1,1.16.2,mp-1110822,-2.588186391,-1.0095581622666665,,,
5.0,3.0,KPbO3,82.92657461938236,5.893054640887403,Cubic,Pm-3m,221.0,m-3m,0.1,1.16.2,mp-1184935,-5.137626526,-1.20500409585,,,
20.0,3.0,KPbI3,860.6416828616508,4.839075124545369,Orthorhombic,Pnma,62.0,mmm,0.1,1.16.2,mp-1211504,-3.0900485395,-1.2414195261,,,
90.0,3.0,KBiO3,1606.2497196394143,5.5095111032968385,Triclinic,P1,1.0,1,0.1,1.16.2,mp-676536,-5.514770433111111,-1.5565795909611109,,,
30.0,3.0,KBiO3,512.6270580799317,5.754443719876696,Monoclinic,C2/m,12.0,2/m,0.1,1.16.2,mp-863367,-5.535862713666668,-1.5776718715166675,,,
60.0,3.0,KBiO3,1020.0944985470918,5.7835495813543005,Cubic,Pn-3,201.0,m-3,0.1,1.16.2,mp-29799,-5.5456424855,-1.5874516433500006,,,"['icsd-41204', 'icsd-76976']"
5.0,3.0,KBiO3,78.63401066432932,6.252348761231978,Cubic,Pm-3m,221.0,m-3m,0.1,1.16.2,mp-982040,-5.452773802,-1.4945829598499998,,,
5.0,3.0,KAcO3,100.80951668519734,5.173812216172573,Cubic,Pm-3m,221.0,m-3m,0.1,1.16.2,mp-1185008,-6.231918364,-2.2175903463499997,,,
5.0,3.0,KPaO3,82.6542619610523,6.3913370321951986,Cubic,Pm-3m,221.0,m-3m,0.1,1.16.2,mp-1206970,-8.656407697999999,-3.5633817498499996,,,
5.0,3.0,KUO3,79.44393397949031,6.795779335257007,Cubic,Pm-3m,221.0,m-3m,0.1,1.16.2,mp-4126,-8.78844244,-3.34006742185,,,"['icsd-71241', 'icsd-99547', 'icsd-44521']"
5.0,3.0,KNpO3,78.70004291254199,6.83830503366296,Cubic,Pm-3m,221.0,m-3m,0.1,1.16.2,mp-1185015,-8.897647024,-3.1179980716,,,
5.0,3.0,KPuO3,76.6096388014749,7.17662531328815,Cubic,Pm-3m,221.0,m-3m,0.1,1.16.2,mp-863708,-9.06460062,-3.02093993785,,,
40.0,2.0,Ca2O3,648.496100209335,2.62521308091353,Triclinic,P1,1.0,1,0.1,1.16.2,mp-1120811,-6.2031539295,-2.43290075075,,,
5.0,3.0,CaScO3,68.15474941663646,3.241227074842477,Cubic,Pm-3m,221.0,m-3m,0.1,1.16.2,mp-1183534,-7.706464766000001,-3.0708377422500006,,,