material_id,formula_pretty,icsd,crystal_system,symbol,number,point_group,nsites,nelements,volume,density,energy_per_atom,formation_energy_per_atom
mp-19056,HoMnO3,"['icsd-191217', 'icsd-191216', 'icsd-184887', 'icsd-92838', 'icsd-191215', 'icsd-162199']",Hexagonal,P6_3cm,185.0,6mm,30.0,3.0,368.50491952318000,7.242284250543950,-8.788998592666670,-3.0721005335028700
mp-22081,HoMnO3,"['icsd-162206', 'icsd-157395', 'icsd-165196']",Orthorhombic,Pnma,62.0,mmm,20.0,3.0,232.6493802962630,7.647609381155830,-8.760399524,-3.043501464836210
mp-1193069,HoMnO3,,Orthorhombic,Cmc2_1,36.0,mm2,30.0,3.0,382.6825028512320,6.973972823492780,-8.473091854,-2.7561937948362100
mp-18974,HoNiO3,"['icsd-24876', 'icsd-191793']",Orthorhombic,Pnma,62.0,mmm,20.0,3.0,207.60973411099800,8.690128359082700,-7.551576216000000,-2.511053879250000
mp-1212108,HoRhO3,,Orthorhombic,Pnma,62.0,mmm,20.0,3.0,225.4575253306890,9.304718979809340,-7.948614022000000,-2.59125744725
mp-1184833,HoRhO3,,Cubic,Pm-3m,221.0,m-3m,5.0,3.0,61.043607647563800,8.591476634200150,-7.347871008,-1.99051443325
mp-1207180,HoSbO3,,Cubic,Pm-3m,221.0,m-3m,5.0,3.0,76.56503528121010,7.258709678135880,-6.577825058000000,-1.8675298092500000
mp-31121,HoScO3,['icsd-99546'],Orthorhombic,Pnma,62.0,mmm,20.0,3.0,248.61433611579300,6.889822697987970,-9.11987672,-3.9688878982500000
mp-1184813,HoSiO3,,Cubic,Pm-3m,221.0,m-3m,5.0,3.0,51.048295860736000,7.839893360987570,-7.757031606,-2.7874729992500000
mp-973977,HoSnO3,,Cubic,Pm-3m,221.0,m-3m,5.0,3.0,82.41714412638170,6.681846650800490,-6.82203584,-2.13562646825
mp-755236,HoTiO3,,Orthorhombic,Pnma,62.0,mmm,20.0,3.0,232.76506970381200,7.442029852766510,-9.103026565500000,-3.639433161416670
mp-1178178,HoTmO3,,Orthorhombic,Pnma,62.0,mmm,20.0,3.0,274.6226952689400,9.235915198087330,-8.747621375,-3.967959289583330
mp-19024,HoVO3,"['icsd-185837', 'icsd-10018']",Orthorhombic,Pnma,62.0,mmm,20.0,3.0,222.6308365086170,7.8725208706218800,-9.006434828500000,-3.305158613750000
mp-1184913,InAsO3,,Cubic,Pm-3m,221.0,m-3m,5.0,3.0,60.84657034167250,6.488005852930810,-5.649403552,-1.1992298982500000
mp-561102,InBiO3,['icsd-171757'],Orthorhombic,Pnma,62.0,mmm,20.0,3.0,283.9517915160880,8.697008401781110,-6.0765920465,-1.7901442477500000
mp-556892,InBiO3,['icsd-171756'],Orthorhombic,Pna2_1,33.0,mm2,20.0,3.0,291.07493270155600,8.484176543805170,-6.0875724380000000,-1.8011246392500000
mp-545379,InBiO3,['icsd-158758'],Cubic,Pm-3m,221.0,m-3m,5.0,3.0,72.65678089350270,8.497249279925950,-5.620489452,-1.3340416532500000
mp-1078776,InBiS3,['icsd-290195'],Monoclinic,P2_1/m,11.0,2/m,10.0,3.0,254.96692474459100,5.47063466457686,-4.54682357,-0.7465190778750010
mp-1223842,InBiSe3,,Trigonal,R3m,160.0,3m,5.0,3.0,146.7082456838380,6.346121737459680,-4.136142482,-0.7201610234062510
mp-7027,InBO3,"['icsd-195100', 'icsd-75254']",Trigonal,R-3c,167.0,-3m,10.0,3.0,105.35335310154900,5.473290410538120,-7.315081527000000,-2.4608532000833300
mp-755167,InCoO3,,Orthorhombic,Pnma,62.0,mmm,20.0,3.0,202.4509888295770,7.275312124108900,-6.48039367,-1.5403801382500000
mp-975443,InCuO3,,Cubic,Pm-3m,221.0,m-3m,5.0,3.0,54.3254369445951,6.919102679006060,-5.246440988,-0.9082496812500000
mp-1224030,InCuO3,,Trigonal,R3m,160.0,3m,5.0,3.0,58.73804230981660,6.3993156993368700,-5.712232692,-1.3740413852500000
mp-617426,InFeBr3,['icsd-75469'],Orthorhombic,Pnma,62.0,mmm,20.0,3.0,523.7674680696950,5.2041698730727500,-3.955092827,-0.7789348410000000
mp-21094,InFeO3,"['icsd-71010', 'icsd-80469']",Hexagonal,P6_3/mmc,194.0,6/mmm,10.0,3.0,123.56429457364900,5.877028897425040,-7.017711596000000,-1.8053573812500000
mp-8098,InGaO3,['icsd-30339'],Hexagonal,P6_3/mmc,194.0,6/mmm,10.0,3.0,115.84663498527000,6.666407292106620,-6.255757647,-2.1317884697500000
mp-504951,InGaS3,,Hexagonal,P6_1,169.0,6,30.0,3.0,718.6195971699800,3.892238095678460,-4.560274773333330,-0.9224489027083330
mp-1224507,InGaS3,,Trigonal,P3m1,156.0,3m,10.0,3.0,253.32581814116200,3.6804230916664800,-4.261768841,-0.6239429703750010
mp-19885,InGaS3,['icsd-62340'],Orthorhombic,Cmc2_1,36.0,mm2,10.0,3.0,234.95748088707000,3.968148565783090,-4.543096339,-0.9052704683750010
mp-1224212,InGaS3,,Triclinic,P1,1.0,1,25.0,3.0,609.2148727942560,3.8260153865158,-4.4842644076,-0.8464385369750000
mp-504952,InGaSe3,,Hexagonal,P6_1,169.0,6,30.0,3.0,819.5928046815500,5.122929557129560,-4.0991458740000000,-0.8456430369062500
mp-998569,InGeCl3,,Trigonal,R3c,161.0,3m,10.0,3.0,343.0649497460600,2.844327916870300,-3.7722156890000000,-1.188151376
mp-1184799,InOsO3,,Cubic,Pm-3m,221.0,m-3m,5.0,3.0,62.72537273464160,9.346249880328050,-6.90046919,-1.1366457312500000
mp-998535,InPbCl3,,Monoclinic,Cm,8.0,m,5.0,3.0,190.93686574017800,3.725507596321790,-3.769079058,-1.3670909020000000
mp-675295,InPF3,,Trigonal,R3,146.0,3,5.0,3.0,123.86473498463400,2.7185759415791600,-4.407952926,-1.6280682981666700
mp-1184773,InPtO3,,Cubic,Pm-3m,221.0,m-3m,5.0,3.0,65.44390862037990,9.081170067199810,-5.468581876,-0.7360052392500000
mp-1203220,InRhO3,"['icsd-237352', 'icsd-237349']",Monoclinic,P2_1/c,14.0,2/m,40.0,3.0,459.51381584522700,7.681880256535900,-6.498414126750000,-1.5072025800000000
mp-1105819,InRhO3,['icsd-237351'],Orthorhombic,Pnma,62.0,mmm,20.0,3.0,231.0110061819040,7.6401773402245700,-6.4651187425000000,-1.4739071957500000
mp-1212207,InRhO3,,Orthorhombic,Pnma,62.0,mmm,20.0,3.0,243.50880333291300,7.248054405493060,-6.2046191825,-1.2134076357500000
mp-1184765,InSbO3,,Cubic,Pm-3m,221.0,m-3m,5.0,3.0,69.2358588741692,6.825218971911620,-5.761112204,-1.4169619832500000
mp-21365,InSbS3,['icsd-300207'],Orthorhombic,Pnma,62.0,mmm,20.0,3.0,490.59485125450300,4.505408610764420,-4.558010144500000,-0.7000032303750000
mp-1212011,InSbSe3,,Orthorhombic,Pnma,62.0,mmm,20.0,3.0,576.0683830272770,5.459042909196260,-4.1367989175,-0.6631150369062500
mp-1184751,InSiO3,,Cubic,Pm-3m,221.0,m-3m,5.0,3.0,49.14932005240000,6.449727694958700,-6.668208518,-2.0647949392500000
mp-998555,InSnBr3,,Trigonal,R3c,161.0,3m,10.0,3.0,392.5375734843700,4.00386388952432,-3.3938214340000000,-1.109753319
mp-998398,InSnBr3,,Triclinic,P1,1.0,1,5.0,3.0,210.5433445485440,3.7324072606655000,-3.383548804,-1.099480689
mp-1224379,InSnBr3,,Orthorhombic,Fmm2,42.0,mm2,40.0,3.0,1271.902423816930,4.942728266965810,-3.3507206607500000,-1.06665254575
mp-998567,InSnCl3,,Trigonal,R-3,148.0,-3,10.0,3.0,369.28006003084500,3.056734997726830,-3.7652072090000000,-1.3038340960000000
mp-1224255,InSnCl3,,Orthorhombic,Fmm2,42.0,mm2,40.0,3.0,1116.478354062950,4.044113454958430,-3.7178246430000000,-1.2564515300000000
mp-1185008,KAcO3,,Cubic,Pm-3m,221.0,m-3m,5.0,3.0,100.80951668519700,5.173812216172570,-6.231918364,-2.2175903463500000
mp-998568,KAgBr3,,Tetragonal,P4mm,99.0,4mm,5.0,3.0,152.96654600988400,4.197615571595640,-2.951183814,-1.2307758259333300
mp-998553,KAgBr3,,Trigonal,R3c,161.0,3m,10.0,3.0,300.45017184056600,4.274217927923270,-2.955902001,-1.2354940129333300
mp-2464440,KAgCl3,,Cubic,Pm-3m,221.0,m-3m,5.0,3.0,134.87911836873900,3.1187695649519700,-3.2905733760000000,-1.3928603899333300
mp-998554,KAgCl3,,Tetragonal,P4mm,99.0,4mm,5.0,3.0,129.49582650872800,3.2484204368364400,-3.292681694,-1.3949687079333300
mp-998750,KAgCl3,,Trigonal,R3c,161.0,3m,10.0,3.0,255.93481633267700,3.2872189516348400,-3.294369077,-1.3966560909333300
mp-13819,KAgF3,,Cubic,Pm-3m,221.0,m-3m,5.0,3.0,80.24753755772120,4.220520618937510,-4.054930302,-2.119451931433330
mp-1205357,KAgF3,['icsd-189150'],Orthorhombic,Pnma,62.0,mmm,20.0,3.0,315.2824008707710,4.296927274670760,-4.0568074440000000,-2.121329073433330
mp-976229,KAgO3,,Cubic,Pm-3m,221.0,m-3m,5.0,3.0,73.698716327076,4.392837719467960,-4.254392346,-0.4977881291833330
mp-1097006,KAlH3,,Cubic,Pm-3m,221.0,m-3m,5.0,3.0,63.124804004285700,1.8178167292606300,-3.113799198,-0.1069686156000000
mp-1184936,KAlO3,,Cubic,Pm-3m,221.0,m-3m,5.0,3.0,57.826543420211800,3.275849264581700,-6.000558208000000,-2.0613500258500000
mp-1184937,KAsO3,,Cubic,Pm-3m,221.0,m-3m,5.0,3.0,56.77687739940850,4.738502659343300,-5.638646618,-1.5167299208500000
mp-1195114,KAsO3,"['icsd-194471', 'icsd-194473', 'icsd-194472']",Monoclinic,P2_1/c,14.0,2/m,120.0,3.0,2249.2820778793700,2.870648058156810,-6.065126112250000,-1.943209415100000
mp-1192552,KAsO3,['icsd-194474'],Triclinic,P-1,2.0,-1,30.0,3.0,525.9776900948690,3.06899767362125,-6.061369838000000,-1.939453140850000
mp-1105278,KAsO3,['icsd-194470'],Orthorhombic,P2_12_12_1,19.0,222,20.0,3.0,351.1743477497050,3.0644309445752400,-6.0462133085,-1.9242966113500000
mp-1194970,KAsO3,['icsd-194476'],Orthorhombic,Pbcn,60.0,mmm,40.0,3.0,642.3945321837150,3.3504318118245100,-6.0542853325,-1.93236863535
mp-1112174,KAuBr3,,Cubic,Pm-3m,221.0,m-3m,5.0,3.0,158.63720916259300,4.980206611863570,-2.96675448,-1.1580812926
mp-1110854,KAuCl3,,Cubic,Pm-3m,221.0,m-3m,5.0,3.0,135.6759101875910,4.190929775408470,-3.282036358,-1.2960581726
mp-1111868,KAuF3,,Cubic,Pm-3m,221.0,m-3m,5.0,3.0,90.180581563584,5.396258273551400,-3.9144346080000000,-1.8906910381
mp-31045,KAuI3,['icsd-32036'],Monoclinic,P2_1/c,14.0,2/m,20.0,3.0,804.8974507267880,5.089763555767360,-2.6822722370000000,-0.9213962376000000
mp-1184942,KAuO3,,Cubic,Pm-3m,221.0,m-3m,5.0,3.0,71.87610219949090,6.562651688367880,-4.400781534,-0.5559121178500000
mp-1223538,KBaN3,,Orthorhombic,F222,22.0,222,20.0,3.0,609.312468652378,2.3812880207183900,-4.250331078,1.3574406544000000
mp-973447,KBaO3,,Cubic,Pm-3m,221.0,m-3m,5.0,3.0,126.03265569426300,2.9568843658832000,-4.821337168,-1.2474491638500000
mp-1211678,KBeF3,,Orthorhombic,P2_12_12_1,19.0,222,20.0,3.0,289.14423988008000,2.41446424243066,-5.52779316,-3.4109434171000000
mp-974757,KBeH3,['icsd-173445'],Monoclinic,P2_1/c,14.0,2/m,20.0,3.0,328.1042855997410,1.035164852651830,-3.208797448,-0.20319945860000000
mp-973396,KBeO3,,Cubic,Pm-3m,221.0,m-3m,5.0,3.0,53.64977433795310,2.9747044245727000,-5.136239456,-1.19826386685
mp-676536,KBiO3,,Triclinic,P1,1.0,1,90.0,3.0,1606.2497196394100,5.5095111032968400,-5.514770433111110,-1.5565795909611100
mp-863367,KBiO3,,Monoclinic,C2/m,12.0,2/m,30.0,3.0,512.6270580799320,5.754443719876700,-5.535862713666670,-1.5776718715166700
mp-29799,KBiO3,"['icsd-41204', 'icsd-76976']",Cubic,Pn-3,201.0,m-3,60.0,3.0,1020.0944985470900,5.7835495813543000,-5.5456424855,-1.5874516433500000
mp-982040,KBiO3,,Cubic,Pm-3m,221.0,m-3m,5.0,3.0,78.63401066432930,6.252348761231980,-5.452773802,-1.4945829598500000
mp-22958,KBrO3,"['icsd-33663', 'icsd-47173', 'icsd-74767']",Trigonal,R3m,160,3m,5,3,83.9596761670273,3.3029052403687,-4.567074504,-1.06637582185
mp-998599,KCaBr3,,Orthorhombic,Cmcm,63.0,mmm,10.0,3.0,324.2537852699500,3.2661236604582100,-3.87898141,-2.3239646466
mp-998749,KCaBr3,,Monoclinic,Cm,8.0,m,5.0,3.0,187.1315837363700,2.8297012693359900,-3.824431044,-2.2694142806
mp-1211648,KCaBr3,,Orthorhombic,Pnma,62.0,mmm,20.0,3.0,671.3702189186730,3.154900024517210,-3.878593241,-2.3235764776
mp-1211589,KCaCl3,,Cubic,Pm-3m,221.0,m-3m,5.0,3.0,156.89807138305000,1.9636226957257200,-4.297565154000000,-2.5652433926000000
mp-998421,KCaCl3,,Trigonal,R-3,148.0,-3,10.0,3.0,310.68155861108000,1.9833080229201800,-4.339138677000000,-2.6068169156000000
mp-1211643,KCaCl3,,Orthorhombic,Pnma,62.0,mmm,20.0,3.0,572.3463649065130,2.1531620205794400,-4.3432983085,-2.6109765471000000
mp-998601,KCaCl3,,Monoclinic,Cm,8.0,m,5.0,3.0,158.08478525203200,1.9488821355715600,-4.297632130000000,-2.5653103686000000
mp-4950,KCaF3,"['icsd-154073', 'icsd-154074']",Cubic,Pm-3m,221.0,m-3m,5.0,3.0,90.01935657512330,2.5118832221378500,-5.471143296000000,-3.7010561501
mp-643749,KCaF3,['icsd-85320'],Monoclinic,P2_1/m,11.0,2/m,20.0,3.0,346.4864821349560,2.610411927823780,-5.4929808435,-3.7228936976
mp-5926,KCaF3,"['icsd-181644', 'icsd-153629', 'icsd-181643', 'icsd-153628', 'icsd-181648', 'icsd-181647', 'icsd-181646', 'icsd-181649', 'icsd-181645']",Orthorhombic,Pnma,62.0,mmm,20.0,3.0,332.23397730054900,2.7223959847326900,-5.495007580500000,-3.7249204346
mp-1105914,KCaH3,['icsd-168716'],Orthorhombic,Pnma,62.0,mmm,20.0,3.0,356.48780527248600,1.5315700399330700,-3.1376771445000000,-0.4788417521000000
mp-1205722,KCaI3,,Orthorhombic,Cmcm,63.0,mmm,10.0,3.0,408.3048074953540,3.740660485811370,-3.3349183690000000,-1.8276987936000000
mp-982885,KCaO3,,Cubic,Pm-3m,221.0,m-3m,5.0,3.0,95.36093697143250,2.2145150019717700,-5.06711209,-1.4758990978500000
mp-23442,KCdCl3,"['icsd-33281', 'icsd-31357']",Orthorhombic,Pnma,62.0,mmm,20.0,3.0,519.0218184985110,3.3000569218957200,-3.336589126,-1.8208093886000000
mp-9628,KCdF3,['icsd-201329'],Orthorhombic,Pnma,62.0,mmm,20.0,3.0,324.86294739739800,4.263088622778990,-4.267583105,-2.7140379831
mp-10175,KCdF3,['icsd-44788'],Cubic,Pm-3m,221.0,m-3m,5.0,3.0,84.14795913800040,4.11453690974569,-4.242006090000000,-2.6884609681
mp-1211584,KCdN3,,Cubic,Pm-3m,221.0,m-3m,5.0,3.0,95.26040725410970,3.3735225210450000,-3.7494216720000000,1.6591330244000000
mp-1184992,KCdO3,,Cubic,Pm-3m,221.0,m-3m,5.0,3.0,81.73842379384310,4.053050969826190,-4.111037796,-0.7363668278500000
mp-556084,KClO3,['icsd-16690'],Orthorhombic,Pnma,62,mmm,20,3,370.207974600109,2.19874498988966,-4.7135123145,-1.15371196635
mp-550506,KClO3,"['icsd-188311', 'icsd-9483']",Trigonal,R3m,160,3m,5,3,89.1498594092199,2.28265342975124,-4.702425806,-1.14262545785
mp-23022,KClO3,"['icsd-26409', 'icsd-26685', 'icsd-31120', 'icsd-1724', 'icsd-26408']",Monoclinic,P2_1/m,11,2/m,10,3,185.027807315655,2.1996502611646,-4.713488817,-1.15368846885
mp-1105868,KCO3,['icsd-157702'],Monoclinic,P2_1/c,14.0,2/m,20.0,3.0,323.2987632266500,2.0361522665766100,-6.8399012805000000,-1.80407516585
mp-1106094,KCO3,"['icsd-2328', 'icsd-2326', 'icsd-24708', 'icsd-27793', 'icsd-24639']",Monoclinic,P2_1/c,14.0,2/m,20.0,3.0,350.45565477951200,1.878370345998600,-6.851735725500000,-1.8159096108500000
mp-1001793,KCoCl3,,Trigonal,R3c,161.0,3m,10.0,3.0,234.1901016569460,2.8984863099498600,-4.189181978,-1.4363166336
mp-559946,KCoF3,"['icsd-15425', 'icsd-15246', 'icsd-44785', 'icsd-189368']",Cubic,Pm-3m,221.0,m-3m,5.0,3.0,69.18634945992440,3.7207903201146700,-5.243563268000000,-2.4529325391000000
mp-1184947,KCoO3,,Cubic,Pm-3m,221.0,m-3m,5.0,3.0,58.13916092561980,4.170820658065730,-5.643307976,-1.0315514008500000
mp-998420,KCrCl3,,Tetragonal,P4mm,99.0,4mm,5.0,3.0,123.17031129372400,2.6619976931868200,-4.992647328000000,-1.7308360486000000
mp-1180767,KCrF3,,Tetragonal,I4/mcm,140.0,4/mmm,10.0,3.0,144.81653079525400,3.396139663724110,-6.2306271970000000,-2.9310505331
mp-1180782,KCrF3,['icsd-172846'],Orthorhombic,Ibam,72.0,mmm,10.0,3.0,144.40926392615700,3.4057175476510500,-6.230846555,-2.9312698911
mp-556365,KCrF3,"['icsd-169764', 'icsd-172845']",Monoclinic,C2/m,12.0,2/m,10.0,3.0,143.85218425808200,3.4189064749571400,-6.233367434,-2.9337907701
mp-560547,KCrF3,,Tetragonal,I4/m,87.0,4/m,10.0,3.0,143.9373720095830,3.4168830327396800,-6.228462199000000,-2.9288855351
mp-555036,KCrF3,,Cubic,Pm-3m,221.0,m-3m,5.0,3.0,75.13200290455110,3.2730204518938300,-6.1468496660000000,-2.8472730021000000
mp-566131,KCrF3,"['icsd-172844', 'icsd-27690', 'icsd-169765']",Tetragonal,P4/mmm,123.0,4/mmm,5.0,3.0,77.09583164614410,3.1896482189467600,-6.206554186,-2.9069775221
mp-1076732,KCrO3,,Cubic,Pm-3m,221.0,m-3m,5.0,3.0,57.72427493335190,4.00124031772841,-6.79726811,-1.6765655998500000
mp-1023129,KCuCl3,,Cubic,Pm-3m,221.0,m-3m,5.0,3.0,110.45741002736300,3.1420087127911500,-3.6002067680000000,-1.4491636486000000
mp-27450,KCuCl3,"['icsd-252663', 'icsd-15590']",Monoclinic,P2_1/c,14.0,2/m,20.0,3.0,483.28914131718800,2.872467970229370,-3.614130334,-1.4630872146000000
mp-636978,KCuCl3,['icsd-109325'],Monoclinic,P2_1/c,14.0,2/m,20.0,3.0,672.1848188118260,2.065254287127700,-3.5921859650000000,-1.4411428456000000
mp-556045,KCuF3,['icsd-9856'],Tetragonal,I4/mcm,140.0,4/mmm,10.0,3.0,194.37979222074800,2.7275226425041000,-4.417160947,-2.2283524431
mp-3682,KCuF3,"['icsd-158622', 'icsd-182850', 'icsd-182849', 'icsd-8000', 'icsd-21108', 'icsd-67445', 'icsd-35663', 'icsd-43618', 'icsd-67444', 'icsd-17011', 'icsd-21109', 'icsd-33537']",Tetragonal,I4/mcm,140.0,4/mmm,10.0,3.0,135.10356227752700,3.924213955500730,-4.54848816,-2.3596796561
mp-5566,KCuF3,,Cubic,Pm-3m,221.0,m-3m,10.0,3.0,127.64948446306600,4.1533680042455000,-4.548677252000000,-2.3598687481000000
mp-669347,KCuF3,"['icsd-182850', 'icsd-43618', 'icsd-17011', 'icsd-158622', 'icsd-33537', 'icsd-67445', 'icsd-67444', 'icsd-182849', 'icsd-8000', 'icsd-35663', 'icsd-21109', 'icsd-21108']",Tetragonal,I4/mcm,140.0,4/mmm,10.0,3.0,132.2511341125260,4.008852461531500,-4.5508758,-2.3620672961
mp-1080828,KCuF3,"['icsd-21111', 'icsd-21110']",Tetragonal,P4/mbm,127.0,4/mmm,10.0,3.0,131.74277485354100,4.024321524400330,-4.547111701,-2.3583031971
mp-1147650,KCuH3,,Tetragonal,I4/mcm,140.0,4/mmm,10.0,3.0,116.90322189038200,3.001902574057500,-3.190195756,-0.11263900560000000
mp-1223513,KCuS3,,Orthorhombic,Pmm2,25.0,mm2,5.0,3.0,109.3156406954630,3.0204316923433900,-3.971876212,-0.448085168475
mp-1211599,KDyBr3,,Orthorhombic,Pnma,62.0,mmm,20.0,3.0,682.280243482244,4.29625802970821,-3.9942476695000000,-1.9189935141000000
mp-1206220,KDyI3,,Orthorhombic,Cmcm,63.0,mmm,10.0,3.0,399.10863379932900,4.8455546260110800,-3.513893937,-1.4864369696000000
mp-1184954,KDyO3,,Cubic,Pm-3m,221.0,m-3m,5.0,3.0,89.23312572862050,4.644740792753510,-6.4084293080000000,-2.296978923850000
mp-973830,KErO3,,Cubic,Pm-3m,221.0,m-3m,5.0,3.0,86.7329373460614,4.869744499362980,-6.434016168000000,-2.3303793898500000
mp-23348,KFeBr3,"['icsd-4064', 'icsd-35206', 'icsd-35205']",Orthorhombic,Pnma,62.0,mmm,20.0,3.0,584.0146847215040,3.8061248392049700,-4.173214274,-1.3253132446000000
mp-23538,KFeCl3,"['icsd-4063', 'icsd-10134', 'icsd-10135']",Orthorhombic,Pnma,62.0,mmm,20.0,3.0,492.9694099949900,2.7123008167977800,-4.6039819965,-1.5787759691000000
mp-556891,KFeF3,"['icsd-44784', 'icsd-107514', 'icsd-15424', 'icsd-37262']",Cubic,Pm-3m,221.0,m-3m,5.0,3.0,72.26732624504930,3.4912019583547700,-5.572443112,-2.5094717001000000
mp-1247740,KFeI3,,Orthorhombic,Pnma,62.0,mmm,20.0,3.0,648.1500424921120,4.874467314441560,-3.5712286395,-0.7711247981
mp-1097023,KFeO3,,Orthorhombic,Pnma,62.0,mmm,20.0,3.0,380.6895919360880,2.4939998362577000,-6.158917163,-1.2748199048500000
mp-1184987,KGdO3,,Cubic,Pm-3m,221.0,m-3m,5.0,3.0,88.77383613989270,4.5705686121030900,-8.327219786,-2.3219023218500000
mp-998412,KGeBr3,,Monoclinic,Cm,8.0,m,5.0,3.0,175.64051665487300,3.322678412891690,-3.49500829,-1.4165059316000000
mp-998612,KGeBr3,,Monoclinic,P2_1/m,11.0,2/m,10.0,3.0,342.7646286889750,3.4052344044393600,-3.520239458,-1.4417370996000000
mp-998613,KGeCl3,,Trigonal,R3c,161.0,3m,10.0,3.0,313.5309319788260,2.310196857989360,-3.9156820330000000,-1.6598746766000000
mp-998231,KGeCl3,,Monoclinic,Cm,8.0,m,5.0,3.0,153.00083795544300,2.3670398921308400,-3.88745914,-1.6316517836
mp-998227,KHfO3,,Cubic,Pm-3m,221.0,m-3m,5.0,3.0,72.92743889412980,6.047336441525030,-8.12971787,-2.94818704785
mp-1184944,KHoO3,,Cubic,Pm-3m,221.0,m-3m,5.0,3.0,88.02337641990910,4.754423171005630,-6.420753736,-2.31417894585
mp-28529,KInBr3,['icsd-50510'],Trigonal,P-3,147.0,-3,20.0,3.0,697.2808897524970,3.7496233123575500,-3.2797647855000000,-1.5755312521
mp-1110931,KInBr3,,Cubic,Fm-3m,225.0,m-3m,10.0,3.0,387.26526885221600,3.3756457004605700,-3.211932292,-1.5076987586000000
mp-1112170,KInCl3,,Cubic,Fm-3m,225.0,m-3m,10.0,3.0,336.82650816696300,2.566290320040950,-3.6100350660000000,-1.7284965346000000
mp-1112296,KInF3,,Cubic,Fm-3m,225.0,m-3m,10.0,3.0,203.3392813139330,3.4447530159769800,-4.625288278,-2.7059843621000000
mp-1112169,KInI3,,Cubic,Fm-3m,225.0,m-3m,10.0,3.0,468.89161115328900,3.786689710385120,-2.742072924,-1.0856365786000000
mp-974734,KInO3,,Cubic,Pm-3m,221.0,m-3m,5.0,3.0,79.97569649952500,4.192360054844870,-5.021622034,-1.28119227185
mp-1223446,KIO3,,Trigonal,R3,146,3,5,3,92.3823940071027,3.84658759706934,-4.86031302,-1.37554673385
mp-558843,KIO3,['icsd-28545'],Cubic,Pm-3m,221,m-3m,5,3,74.1019188315476,4.79551645326636,-4.6682329,-1.18346661385
mp-1200675,KIO3,['icsd-423584'],Trigonal,R3,146,3,40,3,704.085663573355,4.03765609055918,-4.86551696625,-1.3807506801