material_id,formula_pretty,icsd,crystal_system,symbol,number,point_group,nsites,nelements,volume,density,energy_per_atom,formation_energy_per_atom
mp-555118,NaPO3,['icsd-18139'],Orthorhombic,Pnma,62.0,mmm,60.0,3.0,788.6158193446040,2.5763333770705400,-6.956924663500000,-2.641745876727010
mp-648053,NaPO3,['icsd-35198'],Tetragonal,I4_1/a,88.0,4/m,40.0,3.0,565.0118887456340,2.3972796532051000,-6.926645526,-2.6114667392270100
mp-648072,NaPO3,['icsd-35197'],Tetragonal,I4_1/a,88.0,4/m,40.0,3.0,598.4600564804750,2.2632947513232800,-6.9066649305,-2.5914861437270100
mp-4734,NaPO3,"['icsd-34693', 'icsd-15440']",Monoclinic,P2_1/c,14.0,2/m,40.0,3.0,510.7728274098800,2.6518472244843000,-6.949052894500000,-2.633874107727010
mp-1189520,NaPS3,['icsd-426906'],Monoclinic,P2_1/m,11.0,2/m,20.0,3.0,485.66588787613200,2.053626689443860,-4.6998153905,-0.8707799103520120
mp-976952,NaPuO3,,Cubic,Pm-3m,221.0,m-3m,5.0,3.0,74.43174874793520,7.027240892455190,-9.013162424000000,-2.927076472560340
mp-976923,NaReO3,,Cubic,Pm-3m,221.0,m-3m,5.0,3.0,58.755619851879800,7.2687905480204500,-7.7992969180000000,-2.0778731955603400
mp-977107,NaRuO3,,Cubic,Pm-3m,221.0,m-3m,5.0,3.0,57.84641929357170,4.939095335518070,-6.610622938000000,-1.523224144560350
mp-22212,NaSbO3,['icsd-98978'],Orthorhombic,Pnma,62.0,mmm,20.0,3.0,236.38441497375000,5.416017515922950,-6.027857919000000,-1.969539385560350
mp-760994,NaSbO3,,Triclinic,P-1,2.0,-1,30.0,3.0,426.44615616793400,4.503248933558900,-6.054098247333330,-1.9957797138936800
mp-4482,NaSbO3,"['icsd-78011', 'icsd-5312', 'icsd-78416']",Trigonal,R-3,148.0,-3,10.0,3.0,128.83098377675000,4.968766419604390,-6.119753534,-2.061435000560350
mp-20011,NaSbO3,['icsd-25540'],Cubic,Fd-3m,227.0,m-3m,20.0,3.0,280.07343441656300,4.571165896744240,-6.064616287,-2.0062977535603400
mp-752755,NaSbO3,,Orthorhombic,Pnna,52.0,mmm,20.0,3.0,256.8243142904020,4.984972452964030,-6.0681694565,-2.0098509230603400
mp-1197679,NaSeO3,['icsd-32501'],Monoclinic,C2/c,15,2/m,40,3,686.91752035661,2.89984696640158,-5.3135566525,-1.3818560715291
mp-728664,NaSeO3,['icsd-22373'],Monoclinic,C2/c,15,2/m,40,3,800.798690080181,2.48746122121499,-5.43349811975,-1.50179753877909
mp-1186167,NaSiO3,,Cubic,Pm-3m,221.0,m-3m,5.0,3.0,45.165596736968500,3.64249291692359,-6.67670851,-2.359126618560350
mp-977112,NaSrO3,,Cubic,Pm-3m,221.0,m-3m,5.0,3.0,74.52969847814960,3.5338225518348000,-4.87871639,-1.3082994138936800
mp-4675,NaTaO3,"['icsd-23322', 'icsd-280101', 'icsd-88377', 'icsd-239692']",Tetragonal,P4/mbm,127.0,4/mmm,10.0,3.0,118.77001155706700,7.044696123574570,-8.668880122000000,-3.0648063105603500
mp-730333,NaTaO3,,Triclinic,P1,1.0,1,40.0,3.0,581.7432250726710,5.753044325757010,-5.485820724,0.11825308743965500
mp-4170,NaTaO3,"['icsd-28609', 'icsd-28619', 'icsd-28612', 'icsd-28611', 'icsd-28608', 'icsd-28607', 'icsd-28615', 'icsd-28606', 'icsd-28610', 'icsd-28618', 'icsd-28613', 'icsd-28616', 'icsd-28617', 'icsd-88378', 'icsd-239693', 'icsd-28614']",Cubic,Pm-3m,221.0,m-3m,5.0,3.0,61.52965494459860,6.7991494570085200,-8.658897724000000,-3.054823912560350
mp-3858,NaTaO3,"['icsd-980', 'icsd-173757', 'icsd-150430', 'icsd-88375', 'icsd-239690', 'icsd-23319']",Orthorhombic,Pnma,62.0,mmm,20.0,3.0,234.06103598567600,7.149405594053550,-8.6734985635,-3.0694247520603500
mp-754818,NaTaO3,,Cubic,Fd-3m,227.0,m-3m,20.0,3.0,289.20701886028800,5.786157219214490,-8.586740757,-2.982666945560350
mp-676280,NaTaO3,,Triclinic,P1,1.0,1,40.0,3.0,583.5490824437460,5.735240891882550,-8.5778496355,-2.9737758240603500
mp-4699,NaTaO3,"['icsd-88376', 'icsd-280099', 'icsd-23321', 'icsd-239691', 'icsd-23320']",Orthorhombic,Cmcm,63.0,mmm,20.0,3.0,235.85405428360800,7.095054121960280,-8.672111269,-3.068037457560350
mp-977176,NaTcO3,,Cubic,Pm-3m,221.0,m-3m,5.0,3.0,55.54069588597200,5.052351618909320,-7.281313588000000,-1.9766675135603400
mp-1120777,NaTiF3,,Cubic,Pm-3m,221.0,m-3m,5.0,3.0,71.89368464879400,2.953016064060080,-5.915472468,-2.924981625477010
mp-977123,NaTiO3,,Cubic,Pm-3m,221.0,m-3m,5.0,3.0,59.42551848449960,3.3211880145473700,-7.456027912000000,-2.6444112232270100
mp-5788,NaUO3,"['icsd-161784', 'icsd-202889', 'icsd-15136', 'icsd-194121', 'icsd-99549', 'icsd-108856']",Orthorhombic,Pnma,62.0,mmm,20.0,3.0,280.2986898886750,7.322682820773150,-8.7827652565,-3.291964969060340
mp-1120756,NaVF3,,Orthorhombic,Pnma,62.0,mmm,20.0,3.0,240.02797524993000,3.6230532346280400,-6.22392806,-2.995754406810350
mp-20572,NaVF3,['icsd-60611'],Cubic,Pm-3m,221.0,m-3m,5.0,3.0,72.39893494667840,3.0029244655703900,-6.132578152000000,-2.904404498810350
mp-1101657,NaVO3,,Monoclinic,C2/c,15.0,2/m,20.0,3.0,316.5071104649090,2.558787975560400,-7.3867767055,-2.3374772060603400
mp-555665,NaVO3,['icsd-29450'],Orthorhombic,Pnma,62.0,mmm,20.0,3.0,274.58999218475800,2.9493958683390500,-7.428562236,-2.379262736560350
mp-19083,NaVO3,"['icsd-63479', 'icsd-4137', 'icsd-63480', 'icsd-20556', 'icsd-2103']",Monoclinic,C2/c,15.0,2/m,20.0,3.0,276.5910460483420,2.9280578674098900,-7.429649651000000,-2.3803501515603500
mp-1099591,NaVO3,,Cubic,Pm-3m,221.0,m-3m,5.0,3.0,53.745207954482900,3.767194412583100,-7.287729564,-2.2384300645603400
mp-763901,NaVO3,,Orthorhombic,Ibam,72.0,mmm,20.0,3.0,316.272602298033,2.560685252381770,-7.386636209000000,-2.3373367095603500
mp-19328,NaWO3,"['icsd-28343', 'icsd-28866', 'icsd-29141']",Cubic,Pm-3m,221.0,m-3m,5.0,3.0,62.5512945491811,6.764876751177080,-7.93570917,-2.111564838560350
mp-1186199,NaYbO3,,Cubic,Pm-3m,221.0,m-3m,5.0,3.0,86.77714887933980,4.669639203011200,-5.0203019080000000,-1.4798619665603400
mp-3795,NaZnF3,"['icsd-69349', 'icsd-72320']",Orthorhombic,Pnma,62.0,mmm,20.0,3.0,230.075798391036,4.197440733306820,-4.43257325,-2.769232088810350
mp-1180211,NaZnO3,['icsd-34379'],Tetragonal,P4_2/mbc,135.0,4/mmm,40.0,3.0,586.523426543158,3.0892883155945200,-4.404077636250000,-0.9196106288103440
mp-1186198,NaZnO3,,Cubic,Pm-3m,221.0,m-3m,5.0,3.0,59.646539963363700,3.79724450394603,-4.3380061240000000,-0.853539116560345
mp-2349989,NbAgO3,,Orthorhombic,Pmmm,47.0,mmm,10.0,3.0,137.02715410739600,6.029416907730860,-7.709486103000000,-2.1547006675833300
mp-1203481,NbAgO3,['icsd-182047'],Orthorhombic,Pmc2_1,26.0,mm2,40.0,3.0,514.8489876818320,6.418921738690090,-7.736745503750000,-2.181960068333330
mp-557680,NbAgO3,,Orthorhombic,Cmmm,65.0,mmm,10.0,3.0,136.91213819506000,6.034482045823360,-7.705599766000000,-2.1508143305833300
mp-1205362,NbAgO3,['icsd-55647'],Orthorhombic,Cmcm,63.0,mmm,20.0,3.0,254.284099930991,6.498195050477720,-7.725453274,-2.1706678385833300
mp-5537,NbAgO3,"['icsd-247733', 'icsd-247731', 'icsd-55646', 'icsd-55645', 'icsd-164198', 'icsd-55643', 'icsd-290499', 'icsd-186255', 'icsd-247732', 'icsd-55644', 'icsd-186254', 'icsd-280359']",Orthorhombic,Pbcm,57.0,mmm,40.0,3.0,513.7503278083720,6.432648662768680,-7.73781684325,-2.183031407833330
mp-1220387,NbAgO3,,Tetragonal,P4/mbm,127.0,4/mmm,10.0,3.0,127.91798090285600,6.458777991663300,-7.722826699,-2.1680412635833300
mp-12725,NbAgO3,['icsd-55649'],Cubic,Pm-3m,221.0,m-3m,5.0,3.0,65.1582457381741,6.339902420894480,-7.705405074,-2.1506196385833300
mp-1186216,NbBiO3,,Cubic,Pm-3m,221.0,m-3m,5.0,3.0,69.41198791748610,8.370278615233200,-7.766860284000000,-2.0104882232500000
mp-1079356,NbCrN3,['icsd-191258'],Tetragonal,P4/nmm,129.0,4/mmm,10.0,3.0,113.23753899361900,5.482143982962300,-9.338546773000000,-0.385779316
mp-17272,NbCuO3,['icsd-201899'],Monoclinic,C2/m,12.0,2/m,20.0,3.0,279.1947379777860,4.863962376053680,-8.1084560835,-2.3003405147500000
mp-1186220,NbFeO3,,Cubic,Pm-3m,221.0,m-3m,5.0,3.0,64.17497521827610,5.090930893481660,-8.593945928,-1.9116674512500000
mp-1247545,NbMoN3,,Triclinic,P-1,2.0,-1,20.0,3.0,236.50518596334800,6.483795400035550,-9.755764489000000,-0.5644765040000000
mp-1220398,NbMoS3,,Monoclinic,P2_1/m,11.0,2/m,10.0,3.0,175.55002194293800,5.392449876667380,-7.854546694,-1.1832857438750000
mp-1220396,NbMoSe3,,Monoclinic,P2_1/m,11.0,2/m,10.0,3.0,201.27830528647000,7.024455861410880,-7.2245565760000000,-0.9376186594062490
mp-23498,NbSeBr3,"['icsd-35375', 'icsd-75362']",Monoclinic,P2/c,13,2/m,20,3,614.983063957416,4.44527349784231,-4.9629368295,-1.31167652796875
mp-570270,NbSeCl3,['icsd-172519'],Monoclinic,P2/c,13,2/m,20,3,537.955987059077,3.43525584935181,-5.392391645,-1.56382634546875
mp-541817,NbSeI3,['icsd-410743'],Monoclinic,C2/c,15,2/m,20,3,728.473235162324,5.03837497065578,-4.486534378,-0.88307126446875
mp-977408,NbTlO3,,Cubic,Pm-3m,221.0,m-3m,5.0,3.0,69.35312692633800,8.267313088456410,-7.82580354,-2.3650006759166700
mp-757636,NbTlO3,,Triclinic,P1,1.0,1,40.0,3.0,622.4098078179820,7.369601272493680,-7.91647763725,-2.455674773166670
mp-1101462,NbTlO3,,Monoclinic,Cc,9.0,m,40.0,3.0,621.9806468162130,7.374686230491850,-7.9163801200000000,-2.4555772559166700
mp-1247532,NbWN3,,Monoclinic,C2/m,12.0,2/m,10.0,3.0,137.75807930158800,7.6848370105936300,-10.365341829000000,-0.7515578199999990
mp-14254,NdAlO3,['icsd-35550'],Cubic,Pm-3m,221.0,m-3m,10.0,3.0,104.23401901492900,6.984787972938770,-8.31650052,-3.6457426407500000
mp-5899,NdAlO3,"['icsd-90574', 'icsd-90572', 'icsd-90578', 'icsd-90577', 'icsd-90575', 'icsd-90576', 'icsd-10333', 'icsd-90573', 'icsd-35444', 'icsd-249018']",Trigonal,R-3c,167.0,-3m,10.0,3.0,105.74913460950500,6.88471376219763,-8.343991437,-3.6732335577500000
mp-975579,NdBeO3,,Cubic,Pm-3m,221.0,m-3m,5.0,3.0,49.03424578850870,6.815388657117360,-7.540602378,-2.87107709175
mp-974740,NdBiO3,,Cubic,Pm-3m,221.0,m-3m,5.0,3.0,87.2729081436746,7.6340126024891700,-6.585811800000000,-1.8960712607500000
mp-13514,NdBO3,['icsd-240380'],Triclinic,P-1,2.0,-1,20.0,3.0,241.13939568840700,5.593021400048570,-8.7238331995,-3.4663121320833300
mp-7238,NdBO3,['icsd-412407'],Orthorhombic,Pnma,62.0,mmm,20.0,3.0,234.24651458020300,5.757600290860530,-8.7158639875,-3.4583429200833300
mp-1188683,NdBS3,['icsd-421073'],Orthorhombic,Pna2_1,33.0,mm2,20.0,3.0,407.9087938977530,4.0911804368669200,-6.318623375,-1.547245614208330
mp-22599,NdCoO3,"['icsd-164823', 'icsd-153433', 'icsd-164821', 'icsd-164822', 'icsd-164906', 'icsd-153431', 'icsd-82078', 'icsd-164824', 'icsd-153432', 'icsd-153434']",Orthorhombic,Pnma,62.0,mmm,20.0,3.0,217.35679852411100,7.675549837320340,-7.870058806,-2.5267525337500000
mp-20031,NdCoO3,['icsd-28923'],Cubic,Pm-3m,221.0,m-3m,5.0,3.0,54.95630053384300,7.5893615624873900,-7.791900062000000,-2.4485937897500000
mp-19269,NdCrO3,"['icsd-9984', 'icsd-156320', 'icsd-79349', 'icsd-156327', 'icsd-251095', 'icsd-84769', 'icsd-38022', 'icsd-156329', 'icsd-156322', 'icsd-80332', 'icsd-156323', 'icsd-84995', 'icsd-156326', 'icsd-28488', 'icsd-251096', 'icsd-156321', 'icsd-82073', 'icsd-156328', 'icsd-156325', 'icsd-156319', 'icsd-156324']",Orthorhombic,Pnma,62.0,mmm,20.0,3.0,231.44769889226700,7.009167420076490,-8.994858331500000,-3.1426061242500000
mp-19062,NdCrO3,['icsd-28933'],Cubic,Pm-3m,221.0,m-3m,5.0,3.0,59.40619598973790,6.826963263257870,-8.851744172,-2.9994919647500000
mp-15931,NdCrS3,['icsd-88976'],Orthorhombic,Pnma,62.0,mmm,20.0,3.0,385.8223979939420,5.034405357923980,-7.051867253500000,-1.6857583528750000
mp-864797,NdCrSe3,['icsd-626422'],Orthorhombic,Pnma,62.0,mmm,20.0,3.0,443.3092752421140,6.489460660246900,-6.4712829375,-1.4894970704062500
mp-1173386,NdCuO3,,Orthorhombic,Pnma,62.0,mmm,20.0,3.0,242.82958559708300,6.996560600353200,-7.1255943425000000,-2.3841102952500000
mp-601267,NdFeO3,['icsd-153236'],Orthorhombic,Pnma,62.0,mmm,20.0,3.0,281.6516760553190,5.850562257820360,-7.7491177030000000,-2.1334707477500000
mp-1180433,NdFeO3,['icsd-153236'],Orthorhombic,Pnma,62.0,mmm,20.0,3.0,286.97346397691900,5.742066332354790,-7.8866556665,-2.2710087112500000
mp-20407,NdFeO3,"['icsd-153442', 'icsd-189726', 'icsd-156444', 'icsd-153441', 'icsd-27275', 'icsd-84774', 'icsd-280090']",Orthorhombic,Pnma,62.0,mmm,20.0,3.0,239.47778048389100,6.880891673755690,-8.392816302,-2.77716934675
mp-3196,NdGaO3,"['icsd-160257', 'icsd-98412', 'icsd-246691', 'icsd-160258', 'icsd-90202', 'icsd-79633', 'icsd-54708', 'icsd-160262', 'icsd-83348', 'icsd-160259', 'icsd-160263', 'icsd-90203', 'icsd-160260', 'icsd-160261', 'icsd-160264', 'icsd-90606', 'icsd-196514']",Orthorhombic,Pnma,62.0,mmm,20.0,3.0,239.71243428239300,7.258699431487930,-7.581744754000000,-3.05448283625
mp-9834,NdGaO3,['icsd-76050'],Cubic,Pm-3m,221.0,m-3m,5.0,3.0,95.05693542411400,4.576206098699860,-6.149087994,-1.6218260762500000
mp-975347,NdGeO3,,Cubic,Pm-3m,221.0,m-3m,5.0,3.0,62.49751342505110,7.037782720688490,-7.338424784,-2.4921764997500000
mp-755138,NdInO3,,Orthorhombic,Pnma,62.0,mmm,20.0,3.0,273.9447173906450,7.445036964779800,-7.3473251585,-2.87534569925
mp-1186316,NdInO3,,Cubic,Pm-3m,221.0,m-3m,5.0,3.0,71.77626339859680,7.103770977716350,-6.937201970000000,-2.4652225107500000
mp-1209937,NdLuO3,,Orthorhombic,Pnma,62.0,mmm,20.0,3.0,285.39559924848300,8.54619906883572,-8.756736310000000,-3.9309034927500000
mp-1080801,NdLuS3,,Orthorhombic,Cmcm,63.0,mmm,10.0,3.0,229.21721771129200,6.018697699146910,-6.714395801,-2.3747062903750000
mp-1205870,NdLuS3,,Orthorhombic,Cmcm,63.0,mmm,10.0,3.0,238.46183266574300,5.785366678690300,-6.577354294,-2.237664783375
mp-13327,NdLuSe3,['icsd-249621'],Orthorhombic,Cmcm,63.0,mmm,10.0,3.0,259.74459154094800,7.110119240815490,-6.109102846000000,-2.1537363689062500
mp-975521,NdMgO3,,Cubic,Pm-3m,221.0,m-3m,5.0,3.0,59.72154240182360,6.020972497082240,-7.081664142000000,-2.83996541875
mp-1232174,NdMgS3,,Monoclinic,C2/m,12.0,2/m,20.0,3.0,554.5831204551300,3.1707739911668300,-5.283548328,-1.5279929113750000
mp-1232282,NdMgSe3,,Monoclinic,C2/m,12.0,2/m,10.0,3.0,299.5298954630230,4.4952265690457400,-4.750148151000000,-1.3789157679062500
mp-1232357,NdMgSe3,,Trigonal,R-3,148.0,-3,30.0,3.0,842.4091085151020,4.795014906767490,-4.844966532,-1.4737341489062500
mp-1189476,NdMnO3,"['icsd-161926', 'icsd-161925']",Monoclinic,P2_1/c,14.0,2/m,20.0,3.0,245.81178102559800,6.67907991266509,-8.706945591500000,-2.952899819836210
mp-20852,NdMnO3,"['icsd-15719', 'icsd-163728', 'icsd-247143', 'icsd-95490', 'icsd-163726', 'icsd-163724']",Orthorhombic,Pnma,62.0,mmm,20.0,3.0,235.65668274841300,6.966899940186670,-8.71828796,-2.9642421883362100
mp-1182197,NdMnO3,,Monoclinic,P2_1/c,14.0,2/m,20.0,3.0,4031.418295284200,0.40725035426490400,-4.7472334365,1.006812335163790
mp-22106,NdNiO3,"['icsd-67724', 'icsd-416213', 'icsd-69788', 'icsd-416212', 'icsd-155746', 'icsd-78319', 'icsd-164825', 'icsd-164562', 'icsd-155747', 'icsd-155748', 'icsd-67722', 'icsd-24875', 'icsd-67723', 'icsd-67725']",Orthorhombic,Pnma,62.0,mmm,20.0,3.0,220.61318188350700,7.555034424780730,-7.503700136500000,-2.426030087250000
mp-1186312,NdNpO3,,Cubic,Pm-3m,221.0,m-3m,5.0,3.0,90.83334720707880,7.847009308489410,-8.986175598000000,-2.4749769485
mp-1186326,NdReO3,,Cubic,Pm-3m,221.0,m-3m,5.0,3.0,64.03615080453490,9.813618594340610,-8.621295616000000,-2.210747465750000
mp-4582,NdRhO3,"['icsd-188151', 'icsd-172349', 'icsd-172355']",Orthorhombic,Pnma,62.0,mmm,20.0,3.0,243.69214839188000,8.044591808528450,-7.8904300875,-2.4959258002500000
mp-1206341,NdSbO3,,Cubic,Pm-3m,221.0,m-3m,5.0,3.0,78.48933829513200,6.643062743880360,-6.823705786,-2.076262824750000
mp-31117,NdScO3,['icsd-99540'],Orthorhombic,Pnma,62.0,mmm,20.0,3.0,260.34020981921800,6.051672320539910,-9.0853638885,-3.897227354250000
mp-1105614,NdScS3,,Orthorhombic,Pnma,62.0,mmm,20.0,3.0,446.28172692860900,4.247595642942790,-7.004041709000000,-2.3020484813750000
mp-1186324,NdTaO3,,Cubic,Pm-3m,221.0,m-3m,5.0,3.0,66.58145441296670,9.307297227030250,-9.27075171,-2.9775534707500000
mp-3119,NdTiO3,"['icsd-8147', 'icsd-82008', 'icsd-82011']",Orthorhombic,Pnma,62.0,mmm,20.0,3.0,248.04775756381800,6.42952614750988,-9.06843503,-3.5676939134166700
mp-1197152,NdTmS3,['icsd-645875'],Monoclinic,P2_1/m,11.0,2/m,40.0,3.0,907.4488182593530,5.992861510362600,-6.70279785475,-2.372131363458330
mp-541129,NdVO3,"['icsd-185834', 'icsd-63522']",Orthorhombic,Pnma,62.0,mmm,20.0,3.0,238.60733896143200,6.7694935937820900,-8.9602356215,-3.2218116942500000
mp-19253,NdVO3,['icsd-28928'],Cubic,Pm-3m,221.0,m-3m,5.0,3.0,60.39214532814180,6.686510488045710,-8.737238134,-2.9988142067500000
mp-771131,NdZrO3,,Monoclinic,C2/m,12.0,2/m,10.0,3.0,142.99614026070800,6.583441724012120,-9.081454101,-3.45027126175
mp-756246,NdZrO3,,Tetragonal,I-4m2,119.0,-42m,20.0,3.0,310.4431765214910,6.064921553203230,-9.195393211000000,-3.5642103717500000
mp-1101702,NdZrO3,,Orthorhombic,Pbam,55.0,mmm,40.0,3.0,572.5350578135860,6.577111695204160,-9.081503697000000,-3.4503208577500000
mp-998365,NiAgF3,,Cubic,Pm-3m,221.0,m-3m,5.0,3.0,64.1899796712093,5.783220649807450,-4.702922782,-1.8334968648333300
mp-1209766,NiAgF3,,Cubic,Pm-3m,221.0,m-3m,5.0,3.0,82.154028290048,4.518644108778630,-3.769799054,-0.9003731368333330
mp-998429,NiAgF3,,Orthorhombic,Cmcm,63.0,mmm,10.0,3.0,127.18444673047400,5.837581960504140,-4.7291842840000000,-1.8597583668333300
mp-976763,NiAsO3,,Cubic,Pm-3m,221.0,m-3m,5.0,3.0,50.50426706330270,5.97129373706661,-5.583455896,-0.5275916522500010
mp-998363,NiBiO3,,Monoclinic,Cm,8.0,m,5.0,3.0,59.39466570278920,8.825467439361970,-6.129619996000000,-1.2374816072500000
mp-25096,NiBiO3,,Monoclinic,P2_1/m,11.0,2/m,20.0,3.0,239.41795799438000,8.757667012498010,-6.2361217595,-1.34398337075
mp-998527,NiBiO3,,Trigonal,R3,146.0,3,10.0,3.0,113.53038155551600,9.234280393489770,-6.257382958,-1.3652445692500000
mp-1105718,NiBiO3,"['icsd-97768', 'icsd-245818', 'icsd-245817']",Triclinic,P-1,2.0,-1,20.0,3.0,244.8404323740430,8.563711199969710,-6.247645475000000,-1.3555070862500000
mp-19147,NiCO3,"['icsd-61067', 'icsd-173985']",Trigonal,R-3c,167.0,-3m,10.0,3.0,88.94505301232420,4.432170194287510,-7.625219773,-1.6554461117500000
mp-1246271,NiMoN3,,Triclinic,P-1,2.0,-1,20.0,3.0,372.19982490418600,3.5094140027356100,-8.229354305,0.09770000799999960
mp-977100,NiMoO3,,Cubic,Pm-3m,221.0,m-3m,5.0,3.0,60.589080202351100,5.5534377944659400,-7.057808574000000,-0.7646379892500010
mp-974108,NiPbO3,,Cubic,Pm-3m,221.0,m-3m,5.0,3.0,55.33047026641990,9.420293410987230,-5.78969708,-0.9231271032500000
mp-1078668,NiPbO3,"['icsd-187685', 'icsd-187684', 'icsd-187686']",Trigonal,R3c,161.0,3m,10.0,3.0,117.63280280756900,8.86197135556213,-6.15665555,-1.2900855732500000
mp-1186345,NiPdO3,,Cubic,Pm-3m,221.0,m-3m,5.0,3.0,50.24692203567440,7.042822187086090,-5.303599806000000,-0.14358288125000000
mp-676040,NiPS3,"['icsd-646133', 'icsd-657314', 'icsd-602341']",Monoclinic,C2/m,12.0,2/m,10.0,3.0,194.28794119527500,3.1770513301547500,-5.240269280000000,-0.5197115225416670
mp-1079754,NiPSe3,['icsd-646145'],Monoclinic,C2/m,12.0,2/m,10.0,3.0,217.80825323611100,4.979098005074670,-4.740707723,-0.4044729990729170
mp-1186112,NiPtO3,,Cubic,Pm-3m,221.0,m-3m,5.0,3.0,61.83793399368840,8.10360470965608,-5.1398230300000000,0.1984441967500000
mp-976848,NiRuO3,,Cubic,Pm-3m,221.0,m-3m,5.0,3.0,51.38110012193620,6.7144582836993900,-6.140766374,-0.16184530325000000
mp-1186113,NiSbO3,,Cubic,Pm-3m,221.0,m-3m,5.0,3.0,54.94858203961170,6.903777905566450,-5.907621586000000,-0.95778077525
mp-572987,NiSeO3,"['icsd-416251', 'icsd-239332', 'icsd-239336']",Monoclinic,C2/c,15,2/m,80,3,1093.20875418908,4.51195412982912,-6.013126794625,-1.18990393634375
mp-20460,NiSeO3,"['icsd-497', 'icsd-190004']",Orthorhombic,Pnma,62,mmm,20,3,217.561366854781,5.66794994963549,-6.079090575,-1.25586771671875
mp-754654,NiSnO3,,Trigonal,R-3,148.0,-3,20.0,3.0,231.0668176468010,6.4793061381278400,-6.652262607,-1.7263076732500000
mp-1186110,NpAlO3,,Cubic,Pm-3m,221.0,m-3m,5.0,3.0,53.406004744739300,9.700305169972230,-9.598500292,-3.2918159630000000
mp-973930,NpBeO3,,Cubic,Pm-3m,221.0,m-3m,5.0,3.0,45.490614274963900,10.732229781422900,-9.27566219,-2.970210454
mp-977058,NpBO3,,Cubic,Pm-3m,221.0,m-3m,5.0,3.0,45.70062729266610,10.748271127965900,-9.156538866,-2.2630913488333300
mp-1186334,NpMoO3,,Cubic,Pm-3m,221.0,m-3m,5.0,3.0,65.25116984680240,9.694274670407030,-9.820242098,-2.0935429130000000
mp-973919,NpOsO3,,Cubic,Pm-3m,221.0,m-3m,5.0,3.0,63.208168245276800,12.484699581671000,-9.445837192,-1.6427945430000000
mp-1186329,NpRuO3,,Cubic,Pm-3m,221.0,m-3m,5.0,3.0,62.217858564191100,10.303815387836400,-9.274044056,-1.8615943850000000