nsites,nelements,formula_pretty,volume,density,crystal_system,symbol,number,point_group,symprec,version,material_id,energy_per_atom,formation_energy_per_atom,e_total,e_electronic,icsd
5.0,3.0,RbAsO3,61.135790683882746,5.660117370269648,Cubic,Pm-3m,221.0,m-3m,0.1,1.16.2,mp-975425,-5.457235226,-1.3612915037500002,,,
5.0,3.0,SrAsO3,62.80174892271716,5.56687622512511,Cubic,Pm-3m,221.0,m-3m,0.1,1.16.2,mp-978851,-6.5149823,-2.2772467015833326,,,
120.0,3.0,AgAsO3,1728.699514830734,5.3205196643791055,Orthorhombic,Pca2_1,29.0,mm2,0.1,1.16.2,mp-558950,-5.71533458975,-1.2489864813333336,,,['icsd-55074']
10.0,3.0,AgAsO3,119.28055162319482,6.425733028349928,Trigonal,R-3,148.0,-3,0.1,1.16.2,mp-1178563,-5.741099904,-1.2747517955833338,,,
20.0,3.0,AgAsO3,304.7254522248717,5.030528133497361,Monoclinic,C2/c,15.0,2/m,0.1,1.16.2,mp-775767,-5.7038320395,-1.2374839310833337,,,
5.0,3.0,InAsO3,60.84657034167246,6.488005852930813,Cubic,Pm-3m,221.0,m-3m,0.1,1.16.2,mp-1184913,-5.649403552,-1.1992298982499996,,,
20.0,3.0,SbAsO3,328.7660241411086,4.943337655030774,Monoclinic,P2_1/c,14.0,2/m,0.1,1.16.2,mp-28109,-6.4261552835,-1.70051812775,8.38463885,4.12268007,"['icsd-5286', 'icsd-37187']"
5.0,3.0,CsAsO3,67.69726825568856,6.275110295414904,Cubic,Pm-3m,221.0,m-3m,0.1,1.16.2,mp-1183911,-5.210400732,-1.131483349836207,,,
10.0,3.0,CsAsO3,219.97981958535757,3.862243598557912,Trigonal,P-31m,162.0,-3m,0.1,1.16.2,mp-1178465,-5.872535957,-1.793618574836207,,,
20.0,3.0,CsAsO3,380.39607043350026,4.467005398017112,Orthorhombic,Pbcm,57.0,mmm,0.1,1.16.2,mp-776093,-5.9730525145,-1.894135132336207,,,
10.0,3.0,LaAsO3,141.51370411239242,6.144579313856287,Monoclinic,P2_1/m,11.0,2/m,0.1,1.16.2,mp-1079050,-7.753694633,-2.866656304250001,108.52363667333334,4.891168380000001,['icsd-423416']
10.0,3.0,CeAsO3,140.19995683687966,6.230832471975322,Monoclinic,P2_1/m,11.0,2/m,0.1,1.16.2,mp-1078398,-7.836076696000001,-2.749621957250001,,,['icsd-291400']
40.0,3.0,CeAsO3,582.7221069567656,5.996425625181105,Monoclinic,P2_1/c,14.0,2/m,0.1,1.16.2,mp-1195015,-7.90909450425,-2.8226397655,,,"['icsd-426720', 'icsd-291399']"
5.0,3.0,EuAsO3,63.92572475193852,7.140400682928812,Cubic,Pm-3m,221.0,m-3m,0.1,1.16.2,mp-983564,-8.219218426000001,-2.267981158250001,,,
20.0,3.0,GdAsO3,301.315102069506,6.176031602613676,Monoclinic,P2_1/c,14.0,2/m,0.1,1.16.2,mp-753953,-9.474184692,-2.759123336249999,,,
20.0,3.0,AsAuO3,344.1840454762892,6.173253171712357,Monoclinic,C2/c,15.0,2/m,0.1,1.16.2,mp-755240,-5.632816046,-1.0782027382499997,,,
20.0,2.0,Rb2O3,417.7108705765643,3.48133748492001,Tetragonal,I-42d,122.0,-42m,0.1,1.16.2,mp-1188205,-4.370540364,-1.0103135082500003,,,['icsd-248539']
20.0,2.0,Rb2O3,413.0637584381508,3.5205037524842657,Cubic,I-43d,220.0,-43m,0.1,1.16.2,mp-2571,-4.3848314965,-1.0246046407500002,,,"['icsd-427458', 'icsd-33961', 'icsd-647340', 'icsd-25718', 'icsd-33960']"
10.0,2.0,Rb2S3,306.6292394225025,2.8932713528541916,Orthorhombic,Cmc2_1,36.0,mm2,0.1,1.16.2,mp-7446,-3.961274149,-1.0871905998749998,7.686245549746242,3.6276052600000672,['icsd-14092']
10.0,2.0,Rb2Se3,344.375349990818,3.9328815827670294,Orthorhombic,Cmc2_1,36.0,mm2,0.1,1.16.2,mp-7447,-3.569943676,-1.0801831604062495,9.228136713136584,5.4919217300018985,"['icsd-14093', 'icsd-650051']"
5.0,3.0,RbSrO3,114.28712685110743,3.2122772721079236,Cubic,Pm-3m,221.0,m-3m,0.1,1.16.2,mp-975200,-4.862160836,-1.3601421040833337,,,
10.0,3.0,RbSrCl3,341.9263512032979,2.7142238485179457,Tetragonal,P4/mbm,127.0,4/mmm,0.1,1.16.2,mp-1209111,-4.275119462,-2.631991960833333,,,
5.0,3.0,RbSrCl3,184.83298442262466,2.510549347487334,Cubic,Pm-3m,221.0,m-3m,0.1,1.16.2,mp-1209047,-4.243535842,-2.6004083408333334,,,
10.0,3.0,RbSrCl3,364.2007121581188,2.548223070112482,Trigonal,R-3,148.0,-3,0.1,1.16.2,mp-998755,-4.283996577,-2.6408690758333333,,,
20.0,3.0,RbSrCl3,697.6515205683058,2.660539336649661,Monoclinic,P2_1/m,11.0,2/m,0.1,1.16.2,mp-1209174,-4.2824693215,-2.6393418203333328,,,
10.0,3.0,RbSrI3,462.73132529360066,3.9746976012564685,Orthorhombic,Cmcm,63.0,mmm,0.1,1.16.2,mp-1205862,-3.3178509249999997,-1.8998256098333328,7.70193579,3.2251333666666664,
5.0,3.0,RbYO3,93.76817320196758,3.9379795044291943,Cubic,Pm-3m,221.0,m-3m,0.1,1.16.2,mp-975173,-6.725543536000001,-2.268129272083334,,,
5.0,3.0,RbNbO3,68.86332417595558,5.458641230108817,Cubic,Pm-3m,221.0,m-3m,0.1,1.16.2,mp-1075911,-7.941458901999999,-2.7570778527499997,,,
20.0,3.0,RbNbO3,354.33464490495084,4.243448231713888,Triclinic,P-1,2.0,-1,0.1,1.16.2,mp-3283,-8.024195444,-2.8398143947500003,,,"['icsd-16380', 'icsd-200854']"
20.0,3.0,RbNbO3,351.06995002341193,4.2829092101349335,Monoclinic,C2/m,12.0,2/m,0.1,1.16.2,mp-756063,-7.9998760765,-2.8154950272500003,,,
5.0,3.0,RbMoO3,66.57386524218768,5.722029564103488,Cubic,Pm-3m,221.0,m-3m,0.1,1.16.2,mp-975292,-7.286910315999999,-1.9536602527499993,,,
5.0,3.0,RbRuO3,62.97762089316109,6.184041013311599,Cubic,Pm-3m,221.0,m-3m,0.1,1.16.2,mp-975208,-6.458186190000001,-1.4391856407500008,,,
5.0,3.0,RbRhO3,66.07194957741817,5.940555901425838,Cubic,Pm-3m,221.0,m-3m,0.1,1.16.2,mp-1186897,-5.74644687,-1.1094652547499997,,,
5.0,3.0,RbPdO3,70.35850277043419,5.661576907486393,Cubic,Pm-3m,221.0,m-3m,0.1,1.16.2,mp-975255,-4.9749704459999995,-0.7748740427499996,,,
5.0,3.0,RbPdF3,82.06816613804428,5.035813274523736,Cubic,Pm-3m,221.0,m-3m,0.1,1.16.2,mp-9060,-4.498189628,-2.119219071,,,['icsd-73166']
5.0,3.0,RbPdCl3,125.490540284061,3.946516301287615,Cubic,Pm-3m,221.0,m-3m,0.1,1.16.2,mp-998173,-3.77837043,-1.4371652574999996,,,
5.0,3.0,RbPdBr3,148.24605360759736,4.83445131655105,Orthorhombic,Amm2,38.0,mm2,0.1,1.16.2,mp-1385732,-3.435351548,-1.2714513734999997,,,
5.0,3.0,RbAgO3,77.07990692192173,5.199083434449306,Cubic,Pm-3m,221.0,m-3m,0.1,1.16.2,mp-975421,-4.1872064899999994,-0.4565752480833332,,,
10.0,3.0,RbAgF3,165.15016611284094,5.034021616981131,Tetragonal,I4/mcm,140.0,4/mmm,0.1,1.16.2,mp-7767,-4.0415666869999995,-2.1320612913333328,,,['icsd-23153']
5.0,3.0,RbAgF3,82.1683324390747,5.058941088262324,Cubic,Pm-3m,221.0,m-3m,0.1,1.16.2,mp-1055491,-4.040123524,-2.130618128333333,,,
5.0,3.0,RbAgF3,77.92751683188361,5.334248671452057,Orthorhombic,Cmmm,65.0,mmm,0.1,1.16.2,mp-867844,-3.92832923,-2.0188238343333333,,,
5.0,3.0,RbAgCl3,137.97069477505036,3.606963466959938,Monoclinic,Pm,6.0,m,0.1,1.16.2,mp-998201,-3.29261896,-1.4208789488333333,,,
5.0,3.0,RbAgCl3,131.61575279448348,3.7811222820855654,Cubic,Pm-3m,221.0,m-3m,0.1,1.16.2,mp-1975771,-3.290650806,-1.4189107948333333,,,
5.0,3.0,RbAgBr3,161.60527476866693,4.449688432152706,Tetragonal,P4mm,99.0,4mm,0.1,1.16.2,mp-998226,-2.955828678,-1.2613936648333333,,,
5.0,3.0,RbCdN3,96.55538772430367,4.125730369617648,Cubic,Pm-3m,221.0,m-3m,0.1,1.16.2,mp-1209203,-3.7247870119999993,1.6577947095000005,,,
5.0,3.0,RbCdO3,89.05753605405575,4.584545925800003,Cubic,Pm-3m,221.0,m-3m,0.1,1.16.2,mp-975380,-4.075698602,-0.72700060875,,,
5.0,3.0,RbCdF3,86.64313367399816,4.884729257302883,Cubic,Pm-3m,221.0,m-3m,0.1,1.16.2,mp-6951,-4.23332982,-2.705757673,15.104091813333342,2.3851640000000027,['icsd-49587']
20.0,3.0,RbCdCl3,551.8598510355168,3.661790227997025,Orthorhombic,Pnma,62.0,mmm,0.1,1.16.2,mp-23390,-3.317302857,-1.8274960945,,,"['icsd-33552', 'icsd-200206', 'icsd-82223']"
20.0,3.0,RbCdBr3,640.6612618927102,4.536791354845082,Orthorhombic,Pnma,62.0,mmm,0.1,1.16.2,mp-27400,-2.930630724,-1.6181289595,9.453083986666664,3.432841273333334,['icsd-808']
10.0,3.0,RbInH3,173.25258370847848,3.8972413501626675,Cubic,Fm-3m,225.0,m-3m,0.1,1.16.2,mp-1147705,-2.8317216729999997,-0.049642485500000076,,,
5.0,3.0,RbInO3,82.5887320345404,4.992028227764626,Cubic,Pm-3m,221.0,m-3m,0.1,1.16.2,mp-975299,-4.96813082,-1.2536740327499998,,,
10.0,3.0,RbInF3,197.67575458300075,4.3224842463490365,Cubic,Fm-3m,225.0,m-3m,0.1,1.16.2,mp-1110662,-4.627204056,-2.733873115,,,
10.0,3.0,RbInCl3,322.54165228910443,3.15739481307881,Trigonal,R3c,161.0,3m,0.1,1.16.2,mp-998753,-3.5936251889999995,-1.7380596324999993,,,
5.0,3.0,RbInCl3,162.10258258411477,3.1411940627504986,Monoclinic,Cm,8.0,m,0.1,1.16.2,mp-998195,-3.5896225179999997,-1.7340569614999992,,,
10.0,3.0,RbInCl3,327.42314383910946,3.1103217933791165,Cubic,Fm-3m,225.0,m-3m,0.1,1.16.2,mp-1114001,-3.6260958869999995,-1.7705303304999993,,,
5.0,3.0,RbInCl3,162.1034722167248,3.14117682370784,Tetragonal,P4mm,99.0,4mm,0.1,1.16.2,mp-998204,-3.58963095,-1.7340653934999999,,,
10.0,3.0,RbInBr3,374.0773742733569,3.9063230570269307,Trigonal,R3c,161.0,3m,0.1,1.16.2,mp-998800,-3.219485888,-1.5412253295,,,
5.0,3.0,RbInBr3,188.62325637145042,3.873507170713019,Monoclinic,Cm,8.0,m,0.1,1.16.2,mp-998194,-3.2130211259999997,-1.5347605674999998,,,
10.0,3.0,RbInBr3,375.4711261547887,3.891822753991732,Cubic,Fm-3m,225.0,m-3m,0.1,1.16.2,mp-1110737,-3.229154639,-1.5508940805000002,,,
10.0,3.0,RbInI3,478.74911602653697,4.030386077267493,Cubic,Fm-3m,225.0,m-3m,0.1,1.16.2,mp-1114161,-2.760979151,-1.1305157805000001,,,
5.0,3.0,RbSnO3,74.11954479593331,5.649631292418526,Cubic,Pm-3m,221.0,m-3m,0.1,1.16.2,mp-1186893,-5.616609184,-1.6505747717500001,,,
10.0,3.0,RbSnF3,206.8561193960559,4.1931366289622645,Trigonal,R-3,148.0,-3,0.1,1.16.2,mp-998620,-4.918072841,-2.773164275,,,
5.0,3.0,RbSnF3,112.25028907001969,3.863580122379641,Triclinic,P1,1.0,1,0.1,1.16.2,mp-998193,-4.8886997700000006,-2.743791204,23.85185738666667,2.7015123733333333,
80.0,3.0,RbSnF3,1776.2439096465464,3.90656245554561,Monoclinic,P2_1/c,14.0,2/m,0.1,1.16.2,mp-1198796,-4.930896661625,-2.7859880956249996,,,['icsd-236902']
10.0,3.0,RbSnCl3,351.0235235553608,2.938028100191553,Trigonal,R3c,161.0,3m,0.1,1.16.2,mp-998611,-3.88993258,-1.7827893984999998,,,
20.0,3.0,RbSnBr3,701.0268168324552,4.205809743460504,Orthorhombic,Pnma,62.0,mmm,0.1,1.16.2,mp-998778,-3.5038129585,-1.573974775,87.65513540333335,3.9692386366666668,
5.0,3.0,RbSnBr3,205.86806440407298,3.5804307788045517,Triclinic,P1,1.0,1,0.1,1.16.2,mp-998157,-3.492675132,-1.5628369485,,,
20.0,3.0,RbSnI3,862.5786152100532,4.503866369000728,Orthorhombic,Pnma,62.0,mmm,0.1,1.16.2,mp-29405,-3.064690359,-1.1826493635,22.739120993333334,4.843678266666667,['icsd-400934']
5.0,3.0,RbSbO3,68.44503210008946,6.192016145047547,Cubic,Pm-3m,221.0,m-3m,0.1,1.16.2,mp-975206,-5.789894704,-1.7999744147500003,,,
5.0,3.0,CsRbO3,94.80428201626086,4.665614175855958,Cubic,Pm-3m,221.0,m-3m,0.1,1.16.2,mp-1183926,-3.76243748,-0.41923696433620705,,,
20.0,3.0,RbBaN3,647.7521092442457,2.715455376167445,Orthorhombic,Fddd,70.0,mmm,0.1,1.16.2,mp-1219638,-4.2773274375,1.3044713200000004,,,
5.0,3.0,RbBaO3,124.63922265174297,3.6077114883669057,Cubic,Pm-3m,221.0,m-3m,0.1,1.16.2,mp-975387,-4.828164082,-1.28024905275,,,
5.0,3.0,RbSmO3,95.87752908908864,4.915689480054075,Cubic,Pm-3m,221.0,m-3m,0.1,1.16.2,mp-975207,-6.306784188,-2.19894691975,,,
10.0,3.0,RbSmI3,429.65574052480815,4.765632895412096,Orthorhombic,Cmcm,63.0,mmm,0.1,1.16.2,mp-1206676,-3.572161785,-1.5483179335000004,,,
5.0,3.0,RbEuCl3,180.92054600923964,3.1554075351315394,Cubic,Pm-3m,221.0,m-3m,0.1,1.16.2,mp-1206801,-5.910670828,-2.5540416575,,,
5.0,3.0,RbGdO3,89.4388218566224,5.397491439003579,Cubic,Pm-3m,221.0,m-3m,0.1,1.16.2,mp-975308,-8.289154804,-2.3098103147500004,,,
5.0,3.0,RbTbO3,93.27023664401828,5.205596950118302,Cubic,Pm-3m,221.0,m-3m,0.1,1.16.2,mp-980058,-6.363580492,-2.2725872307499997,,,
5.0,3.0,RbDyO3,92.29319774023979,5.325019800143493,Cubic,Pm-3m,221.0,m-3m,0.1,1.16.2,mp-975386,-6.374110226,-2.28863281675,,,
20.0,3.0,RbDyBr3,713.9981998680418,4.536769756794013,Orthorhombic,Pnma,62.0,mmm,0.1,1.16.2,mp-1209279,-3.9840355315000004,-1.934754351,,,
20.0,3.0,RbDyI3,860.5167772884139,4.852664060458937,Orthorhombic,Pnma,62.0,mmm,0.1,1.16.2,mp-1209272,-3.4674868895000004,-1.4660028970000003,,,
10.0,3.0,RbDyI3,419.80303308955274,4.973521520125187,Orthorhombic,Cmcm,63.0,mmm,0.1,1.16.2,mp-1206194,-3.4962963970000005,-1.4948124045000004,,,
5.0,3.0,RbHoO3,90.98740980757066,5.445794618591798,Cubic,Pm-3m,221.0,m-3m,0.1,1.16.2,mp-975296,-6.384995896,-2.30439408075,,,
5.0,3.0,RbErO3,90.77570949035696,5.501092898164923,Cubic,Pm-3m,221.0,m-3m,0.1,1.16.2,mp-975361,-6.397034038,-2.31937023475,,,
5.0,3.0,RbTmO3,88.45690592881743,5.676745723585779,Cubic,Pm-3m,221.0,m-3m,0.1,1.16.2,mp-981550,-6.401446674000001,-2.342159548083333,,,
20.0,3.0,RbTmBr3,685.0190689917476,4.791081907644047,Orthorhombic,Pnma,62.0,mmm,0.1,1.16.2,mp-1209127,-3.9128281845000004,-1.8897372873333336,,,
20.0,3.0,RbTmI3,795.5064183204506,5.3029564183113,Orthorhombic,Pnma,62.0,mmm,0.1,1.16.2,mp-1209166,-3.4936073215,-1.5183136123333334,,,
20.0,3.0,RbTmI3,850.3948079234465,4.960679236908071,Orthorhombic,Pnma,62.0,mmm,0.1,1.16.2,mp-1209132,-3.3901987055,-1.4149049963333333,,,
5.0,3.0,RbYbO3,93.69611779172504,5.432084051536336,Cubic,Pm-3m,221.0,m-3m,0.1,1.16.2,mp-980537,-5.089377144,-1.6173354467500005,,,
5.0,3.0,RbYbF3,82.75522707250202,6.33077923418276,Cubic,Pm-3m,221.0,m-3m,0.1,1.16.2,mp-6952,-5.5457372739999995,-3.894821423,,,['icsd-49590']
20.0,3.0,RbYbBr3,683.4093989435064,4.842271370177792,Orthorhombic,Pnma,62.0,mmm,0.1,1.16.2,mp-571418,-3.8065469545,-2.3707014859999997,,,['icsd-72341']
20.0,3.0,RbYbI3,834.7483478476254,5.086331918553635,Orthorhombic,Pnma,62.0,mmm,0.1,1.16.2,mp-568796,-3.2474999759999994,-1.8594516954999996,,,['icsd-86314']
5.0,3.0,RbTaO3,68.49564662455086,7.622331586751525,Trigonal,R3m,160.0,3m,0.1,1.16.2,mp-755018,-8.518033926,-2.9823583587499995,63.022552753236084,5.287121006666668,
20.0,3.0,RbTaO3,365.63260409305593,5.711706505127834,Triclinic,P-1,2.0,-1,0.1,1.16.2,mp-858693,-6.185109389,-0.6494338217500001,,,
20.0,3.0,RbTaO3,351.31680591297066,5.9444526653315855,Triclinic,P-1,2.0,-1,0.1,1.16.2,mp-780619,-8.5702714375,-3.03459587025,,,
20.0,3.0,RbTaO3,333.98647387684906,6.252906290016969,Monoclinic,C2/m,12.0,2/m,0.1,1.16.2,mp-3033,-8.5706009055,-3.0349253382499994,17.48296295333333,3.696431799999999,"['icsd-2301', 'icsd-1633']"
5.0,3.0,RbTaO3,67.47978870917987,7.737080106628416,Cubic,Pm-3m,221.0,m-3m,0.1,1.16.2,mp-1076534,-8.513938632,-2.97826306475,,,
5.0,3.0,RbWO3,66.83879192428014,7.883131844505645,Cubic,Pm-3m,221.0,m-3m,0.1,1.16.2,mp-975138,-7.797455308000001,-2.0417092207500005,,,
5.0,3.0,RbReO3,63.238020189559734,8.394151231269237,Cubic,Pm-3m,221.0,m-3m,0.1,1.16.2,mp-975216,-7.627734916,-1.9747094377500005,,,
5.0,3.0,RbOsO3,62.76469020489101,8.563889217767022,Cubic,Pm-3m,221.0,m-3m,0.1,1.16.2,mp-1040467,-6.930602086,-1.5210085587500004,,,
10.0,3.0,RbOsO3,160.14665193019954,6.7127204624474945,Trigonal,R-3,148.0,-3,0.1,1.16.2,mp-998602,-7.021161255,-1.6115677277499998,,,
5.0,3.0,RbIrO3,64.44276112195803,8.392088349597639,Cubic,Pm-3m,221.0,m-3m,0.1,1.16.2,mp-975284,-6.137988264,-1.20618138675,,,
5.0,3.0,RbPtO3,69.17709751024132,7.8865712781699315,Cubic,Pm-3m,221.0,m-3m,0.1,1.16.2,mp-975236,-5.268046396,-0.8896996907499997,,,
5.0,3.0,RbAuO3,75.00835937393516,7.315133863495324,Cubic,Pm-3m,221.0,m-3m,0.1,1.16.2,mp-975405,-4.343844862,-0.5249484207500004,,,
5.0,3.0,RbAuF3,92.00290804343298,6.126285436095047,Cubic,Pm-3m,221.0,m-3m,0.1,1.16.2,mp-1111644,-3.9116584359999997,-1.9138878409999998,,,
5.0,3.0,RbAuCl3,137.67049400123696,4.689505785122908,Cubic,Pm-3m,221.0,m-3m,0.1,1.16.2,mp-1110791,-3.2828132079999994,-1.3228079974999996,,,
10.0,3.0,RbAuBr3,341.6486760124486,5.075649373663879,Monoclinic,C2/m,12.0,2/m,0.1,1.16.2,mp-27300,-3.018250017,-1.2355498045000002,13.484754066675256,6.477915443333333,['icsd-9577']
5.0,3.0,RbAuBr3,160.72210162556107,5.394680852468055,Cubic,Pm-3m,221.0,m-3m,0.1,1.16.2,mp-1110999,-2.971952624,-1.1892524115,,,
10.0,3.0,RbAuI3,421.04638379729926,5.230695886886686,Monoclinic,C2/m,12.0,2/m,0.1,1.16.2,mp-568666,-2.675341361,-0.9404383365000001,14.847177866666662,6.314482833333332,['icsd-170791']
5.0,3.0,RbTlO3,89.05927106621658,6.299310050004165,Cubic,Pm-3m,221.0,m-3m,0.1,1.16.2,mp-975179,-4.426606022,-0.7899573514166669,,,
40.0,3.0,RbTlF3,826.4335141674552,5.575300007304756,Orthorhombic,Pbam,55.0,mmm,0.1,1.16.2,mp-998434,-4.2553120555,-2.4397892311666665,,,
5.0,3.0,RbTlF3,107.06773809055923,5.379322076550187,Orthorhombic,Amm2,38.0,mm2,0.1,1.16.2,mp-1410049,-4.2444494079999995,-2.4289265836666667,,,
5.0,3.0,RbTlF3,107.06566338086313,5.379426316614818,Monoclinic,Cm,8.0,m,0.1,1.16.2,mp-998607,-4.24420102,-2.4286781956666665,,,
10.0,3.0,RbTlF3,211.58452184879064,5.444177505653687,Cubic,Fm-3m,225.0,m-3m,0.1,1.16.2,mp-1113914,-4.297066624,-2.4815437996666665,,,
10.0,3.0,RbTlCl3,357.304149731101,3.682701978841444,Cubic,Fm-3m,225.0,m-3m,0.1,1.16.2,mp-1113994,-3.410039869,-1.6322824291666662,,,
5.0,3.0,RbTlBr3,198.67036766260475,4.426227354011799,Monoclinic,Cm,8.0,m,0.1,1.16.2,mp-998391,-3.045796146,-1.4453437041666668,,,
10.0,3.0,RbTlBr3,410.83026979802924,4.2808930131273435,Cubic,Fm-3m,225.0,m-3m,0.1,1.16.2,mp-1114101,-3.04419525,-1.4437428081666668,,,
10.0,3.0,RbTlBr3,393.9524168152756,4.464296591393343,Trigonal,R3c,161.0,3m,0.1,1.16.2,mp-998606,-3.042998968,-1.442546526166667,,,
10.0,3.0,RbTlI3,497.8528866231676,4.473203211025308,Cubic,Fm-3m,225.0,m-3m,0.1,1.16.2,mp-1114149,-2.6088607440000002,-1.0562054901666666,,,
5.0,3.0,RbPbF3,114.91289263893754,5.052775839610082,Cubic,Pm-3m,221.0,m-3m,0.1,1.16.2,mp-21043,-4.831842524,-2.746318915,,,['icsd-49591']
20.0,3.0,RbPbF3,451.6557896664936,5.142226455367457,Triclinic,P-1,2.0,-1,0.1,1.16.2,mp-1179717,-4.8500922785,-2.7645686695,,,
10.0,3.0,RbPbF3,204.38899729740888,5.681608063675272,Trigonal,R3c,161.0,3m,0.1,1.16.2,mp-1540546,-4.865931515,-2.7804079059999998,16.083701031647312,2.715248267351898,
10.0,3.0,RbPbF3,204.61661089923413,5.675287896070846,Monoclinic,Cc,9.0,m,0.1,1.16.2,mp-674508,-4.863992855,-2.7784692460000002,,,
20.0,3.0,RbPbF3,411.7145987173428,5.641083307656563,Triclinic,P-1,2.0,-1,0.1,1.16.2,mp-605350,-4.8104920635,-2.7249684545,,,
10.0,3.0,RbPbF3,245.4732396767127,4.730691527519799,Orthorhombic,Ima2,46.0,mm2,0.1,1.16.2,mp-1173075,-4.744235088,-2.658711479,,,
5.0,3.0,RbPbCl3,186.76458044490604,3.547779715200581,Monoclinic,Cm,8.0,m,0.1,1.16.2,mp-998605,-3.8763878299999996,-1.8286296054999993,,,
10.0,3.0,RbPbCl3,321.3275545873426,4.124138005352904,Orthorhombic,Cmcm,63.0,mmm,0.1,1.16.2,mp-998604,-3.914520416,-1.8667621915,19.667125095854818,3.3094555710347358,
5.0,3.0,RbPbCl3,187.45133578838053,3.534781906107159,Cubic,Pm-3m,221.0,m-3m,0.1,1.16.2,mp-1209191,-3.8761675959999997,-1.8284093714999998,,,
5.0,3.0,RbPbBr3,214.22580793725126,4.126661790570243,Monoclinic,Cm,8.0,m,0.1,1.16.2,mp-998176,-3.493827592,-1.6233743655000001,,,
10.0,3.0,RbPbBr3,367.8035851927661,4.807117123153489,Orthorhombic,Cmcm,63.0,mmm,0.1,1.16.2,mp-998603,-3.533220957,-1.6627677305000002,18.91135145628302,3.8324236061029757,
20.0,3.0,RbPbI3,886.2002703632756,5.047056938770783,Orthorhombic,Pnma,62.0,mmm,0.1,1.16.2,mp-23517,-3.0889906175,-1.266334579,15.365653573333333,4.535671280000001,"['icsd-161482', 'icsd-161483', 'icsd-6067']"
5.0,3.0,RbBiO3,77.29908558651587,7.356434052251263,Cubic,Pm-3m,221.0,m-3m,0.1,1.16.2,mp-975384,-5.390518846,-1.4583009787499996,,,
10.0,3.0,RbBiF3,234.25797591362058,4.982417431584866,Tetragonal,P4/nmm,129.0,4/mmm,0.1,1.16.2,mp-1173046,-4.424616943,-2.313524922,,,
10.0,3.0,RbBiF3,221.80384188517687,5.262176762853506,Triclinic,P1,1.0,1,0.1,1.16.2,mp-677028,-4.658075653999999,-2.5469836329999995,,,
5.0,3.0,RbAcO3,99.64939924630725,6.006738421990205,Cubic,Pm-3m,221.0,m-3m,0.1,1.16.2,mp-975463,-6.215895894,-2.22754085125,,,
5.0,3.0,RbPaO3,84.09243655756401,7.1976700446159425,Cubic,Pm-3m,221.0,m-3m,0.1,1.16.2,mp-1206844,-8.604355962,-3.5373029887499996,,,
5.0,3.0,RbUO3,81.09117912744907,7.607261575621099,Cubic,Pm-3m,221.0,m-3m,0.1,1.16.2,mp-11775,-8.727750539999999,-3.3053484967499998,,,['icsd-99548']
5.0,3.0,RbNpO3,79.7970001194663,7.709227977568612,Cubic,Pm-3m,221.0,m-3m,0.1,1.16.2,mp-975288,-8.831984582,-3.0783086045000005,,,
5.0,3.0,RbPuO3,78.55915213020248,7.978663495176141,Cubic,Pm-3m,221.0,m-3m,0.1,1.16.2,mp-1186888,-8.99899963,-2.9813119227500002,,,
5.0,2.0,Sr2O3,95.92429284021141,3.864461663271899,Cubic,Pm-3m,221.0,m-3m,0.1,1.16.2,mp-1187089,-5.59363168,-1.9498210719166664,,,