nsites,nelements,formula_pretty,volume,density,crystal_system,symbol,number,point_group,symprec,version,material_id,energy_per_atom,formation_energy_per_atom,e_total,e_electronic,icsd
5.0,2.0,Dy2O3,79.72847892795205,7.768592743769653,Tetragonal,P-4m2,115.0,-42m,0.1,1.16.2,mp-1225275,-8.56731074,-3.7565827772500007,,,
5.0,2.0,Dy2O3,67.25039193795395,9.210029339946836,Trigonal,P-3m1,164.0,-3m,0.1,1.16.2,mp-13064,-8.759255614,-3.94852765125,,,['icsd-160213']
15.0,2.0,Dy2O3,205.16869165087004,9.056616941225986,Monoclinic,C2/m,12.0,2/m,0.1,1.16.2,mp-555574,-8.778225612666667,-3.967497649916667,,,['icsd-160228']
10.0,2.0,Dy2O3,90.97442301514698,13.616532259146187,Cubic,Pn-3m,224.0,m-3m,0.1,1.16.2,mp-673165,-5.6775297909999995,-0.8668018282500001,,,
20.0,2.0,Dy2S3,428.806217159452,6.524259436252626,Orthorhombic,Pnma,62.0,mmm,0.1,1.16.2,mp-8850,-6.6888171595,-2.3642325033750007,,,"['icsd-66532', 'icsd-630200']"
20.0,2.0,Dy2S3,428.8936415691947,6.5229295505305265,Orthorhombic,Pnma,62.0,mmm,0.1,1.16.2,mp-1270,-6.694708136,-2.370123479875,,,"['icsd-80768', 'icsd-66531']"
40.0,2.0,Dy2S3,860.4857172233778,6.502474015847246,Tetragonal,I-42d,122.0,-42m,0.1,1.16.2,mp-32826,-6.669753850499999,-2.345169194375,,,
20.0,2.0,Dy2Se3,488.7204797931984,7.636460752665949,Orthorhombic,Pnma,62.0,mmm,0.1,1.16.2,mp-7368,-6.083226364,-2.1429647414062503,,,"['icsd-630257', 'icsd-630253', 'icsd-419', 'icsd-630262']"
30.0,3.0,DyHoO3,455.5118362027295,8.211602965658575,Hexagonal,P6_3cm,185.0,6mm,0.1,1.16.2,mp-768145,-8.738186537333332,-3.9323341685833326,,,
30.0,3.0,DyErO3,452.19113643002925,8.323213850342594,Hexagonal,P6_3cm,185.0,6mm,0.1,1.16.2,mp-772188,-8.752872202333332,-3.949957845583333,,,
20.0,3.0,DyTmO3,277.3965902475892,9.085365315800441,Orthorhombic,Pnma,62.0,mmm,0.1,1.16.2,mp-752435,-8.748449256499999,-3.9639115770833326,,,
20.0,3.0,YbDyS3,437.6327749080158,6.552642992236912,Orthorhombic,Pnma,62.0,mmm,0.1,1.16.2,mp-1215722,-5.7435664785,-2.032417534375,,,
20.0,3.0,DyLuO3,271.54834506925243,9.428597670172417,Orthorhombic,Pnma,62.0,mmm,0.1,1.16.2,mp-756469,-8.785891342,-3.992330643249999,,,
5.0,3.0,DyBiO3,86.47783908075132,8.054787334038725,Cubic,Pm-3m,221.0,m-3m,0.1,1.16.2,mp-1207000,-6.355123798,-1.6976553772500005,,,
5.0,3.0,DyPaO3,79.95281100327924,9.170216529913105,Cubic,Pm-3m,221.0,m-3m,0.1,1.16.2,mp-1183790,-8.622724074,-2.83042054725,,,
40.0,2.0,Ho2N3,649.556134489356,7.605470432470975,Cubic,Ia-3,206.0,m-3,0.1,1.16.2,mp-1201150,-7.55884445625,-0.72398395325,,,['icsd-639435']
5.0,2.0,Ho2O3,78.30300057960383,8.013094783542625,Tetragonal,P-4m2,115.0,-42m,0.1,1.16.2,mp-1223904,-8.572429008,-3.7714522332500002,,,
15.0,2.0,Ho2O3,201.39242566946544,9.346667781487835,Monoclinic,C2/m,12.0,2/m,0.1,1.16.2,mp-558336,-8.789850825333334,-3.988874050583334,,,"['icsd-420710', 'icsd-160229']"
10.0,2.0,Ho2O3,110.31236913299344,11.375866014149345,Cubic,Pn-3m,224.0,m-3m,0.1,1.16.2,mp-685148,-7.527363395,-2.7263866202500004,,,
40.0,2.0,Ho2O3,582.7960001301811,8.612953628233592,Cubic,Ia-3,206.0,m-3,0.1,1.16.2,mp-812,-8.83540783375,-4.034431059,,,"['icsd-184539', 'icsd-27773', 'icsd-82423', 'icsd-96209', 'icsd-639525', 'icsd-41268', 'icsd-639519', 'icsd-82422', 'icsd-44516', 'icsd-185248', 'icsd-639523', 'icsd-80038', 'icsd-152458']"
5.0,2.0,Ho2O3,66.08862588605207,9.494059788169709,Trigonal,P-3m1,164.0,-3m,0.1,1.16.2,mp-13065,-8.767598598,-3.9666218232499992,,,['icsd-160214']
30.0,2.0,Ho2S3,702.0518684032684,6.046408249359246,Monoclinic,P2_1/m,11.0,2/m,0.1,1.16.2,mp-878,-6.6851806876666675,-2.370347219541667,,,"['icsd-83384', 'icsd-639665', 'icsd-22252']"
10.0,2.0,Ho2S3,248.4505963718819,5.695152638766891,Trigonal,R-3c,167.0,-3m,0.1,1.16.2,mp-978093,-6.673019743,-2.3581862748750004,,,
40.0,2.0,Ho2S3,850.8220796945975,6.652220732392991,Tetragonal,I-42d,122.0,-42m,0.1,1.16.2,mp-32787,-6.65051071175,-2.3356772436250006,,,
20.0,2.0,Ho2S3,423.10805049004614,6.688428962255441,Orthorhombic,Pnma,62.0,mmm,0.1,1.16.2,mp-8956,-6.677303393,-2.3624699248749996,,,"['icsd-639664', 'icsd-72291']"
20.0,2.0,Ho2Se3,569.2317026956865,6.61308896811743,Orthorhombic,Fddd,70.0,mmm,0.1,1.16.2,mp-9824,-6.092548433,-2.1620379984062503,,,"['icsd-639705', 'icsd-639711', 'icsd-408345']"
40.0,2.0,Ho2Se3,976.286640582623,7.711628402808133,Tetragonal,I-42d,122.0,-42m,0.1,1.16.2,mp-685041,-6.0282463675,-2.09773593290625,,,
5.0,3.0,HoErO3,76.57044471496806,8.244907443646573,Cubic,Pm-3m,221.0,m-3m,0.1,1.16.2,mp-1184778,-7.93530163,-3.137262867249999,,,
30.0,3.0,HoErO3,446.6035317168509,8.481566106297969,Hexagonal,P6_3cm,185.0,6mm,0.1,1.16.2,mp-770415,-8.751239186666668,-3.953200423916667,,,
20.0,3.0,HoTmO3,274.6226952689403,9.235915198087328,Orthorhombic,Pnma,62.0,mmm,0.1,1.16.2,mp-1178178,-8.747621375,-3.967959289583333,,,
20.0,3.0,HoLuO3,269.37247310946236,9.564684279486546,Orthorhombic,Pnma,62.0,mmm,0.1,1.16.2,mp-770472,-8.7859126255,-3.9972275207500005,,,
10.0,3.0,HoBiO3,157.1470142482774,8.916443593387505,Trigonal,R-3,148.0,-3,0.1,1.16.2,mp-754300,-7.451282480000001,-2.7986896532500003,,,
10.0,3.0,HoBiO3,157.65844353190255,8.887519482142379,Trigonal,R3c,161.0,3m,0.1,1.16.2,mp-1178162,-7.469307687,-2.81671486025,,,
20.0,3.0,HoBiO3,303.2576792205497,9.240936565995318,Orthorhombic,Pnma,62.0,mmm,0.1,1.16.2,mp-770830,-7.4651025475,-2.8125097207499996,,,
15.0,2.0,Er2O3,197.4974942832298,9.648473202345551,Monoclinic,C2/m,12.0,2/m,0.1,1.16.2,mp-2460,-8.804728969333333,-4.009628218583333,,,"['icsd-419435', 'icsd-160230']"
40.0,2.0,Er2O3,571.3227771258436,8.894209986204963,Cubic,Ia-3,206.0,m-3,0.1,1.16.2,mp-679,-8.852958224,-4.05785747325,,,"['icsd-180843', 'icsd-96210', 'icsd-184540', 'icsd-630897', 'icsd-39185', 'icsd-53406', 'icsd-39189', 'icsd-186592', 'icsd-39188', 'icsd-39186', 'icsd-94888', 'icsd-55832', 'icsd-39187', 'icsd-39190', 'icsd-39521', 'icsd-27774', 'icsd-630890']"
5.0,2.0,Er2O3,75.16329241949913,8.45070876036555,Trigonal,R3m,160.0,3m,0.1,1.16.2,mp-1225560,-8.716643632,-3.9215428812500006,,,
5.0,2.0,Er2O3,64.83254837025989,9.79728716014426,Trigonal,P-3m1,164.0,-3m,0.1,1.16.2,mp-13066,-8.779066784,-3.98396603325,,,['icsd-160215']
20.0,2.0,Er2S3,447.9786662408846,6.38615913560405,Monoclinic,P2_1/m,11.0,2/m,0.1,1.16.2,mp-9092,-6.6667643729999995,-2.357806928875,,,['icsd-73558']
20.0,2.0,Er2S3,416.92734817539167,6.8617783517680015,Orthorhombic,Pnma,62.0,mmm,0.1,1.16.2,mp-1106290,-6.6630484789999995,-2.354091034875,,,['icsd-631065']
30.0,2.0,Er2S3,691.5920547737513,6.204950661786847,Monoclinic,P2_1/m,11.0,2/m,0.1,1.16.2,mp-2234,-6.675441919666667,-2.3664844755416663,,,"['icsd-631066', 'icsd-72292', 'icsd-93367']"
40.0,2.0,Er2S3,840.2262306464423,6.809744679760566,Tetragonal,I-42d,122.0,-42m,0.1,1.16.2,mp-684708,-6.63446788725,-2.325510443125,,,
20.0,2.0,Er2Se3,559.6653396140929,6.781400486450379,Orthorhombic,Fddd,70.0,mmm,0.1,1.16.2,mp-209,-6.0824281645,-2.15779375390625,,,"['icsd-631105', 'icsd-40617', 'icsd-631119', 'icsd-631117', 'icsd-79227', 'icsd-631108']"
40.0,2.0,Er2Se3,965.8575265674713,7.858953731605672,Tetragonal,I-42d,122.0,-42m,0.1,1.16.2,mp-32736,-6.006816526250001,-2.0821821156562508,,,
5.0,2.0,Er2Se3,123.17649187173798,7.703001499386011,Tetragonal,P-4m2,115.0,-42m,0.1,1.16.2,mp-1225508,-6.020717204,-2.096082793406251,,,
20.0,3.0,ErLuO3,268.38545271091147,9.657491079156205,Orthorhombic,Pnma,62.0,mmm,0.1,1.16.2,mp-778151,-8.78571314,-3.9999660472499996,,,
5.0,3.0,ErTaO3,65.10560203138375,10.105336456427127,Cubic,Pm-3m,221.0,m-3m,0.1,1.16.2,mp-1184204,-9.040627105999999,-2.7875145912499995,,,
5.0,3.0,ErIrO3,62.230624822273896,10.872891436715898,Cubic,Pm-3m,221.0,m-3m,0.1,1.16.2,mp-1184162,-7.4192794939999995,-1.77003566925,,,
5.0,3.0,ErTlO3,85.532955416,8.146911804794327,Cubic,Pm-3m,221.0,m-3m,0.1,1.16.2,mp-1184219,-6.351558452,-1.9974728339166667,,,
10.0,3.0,ErBiO3,156.55404848043221,8.999615342539997,Trigonal,R-3,148.0,-3,0.1,1.16.2,mp-754636,-7.458220703,-2.8085658882500004,,,
10.0,3.0,ErBiO3,157.85021467352348,8.925716189586977,Trigonal,R3c,161.0,3m,0.1,1.16.2,mp-754943,-7.478872331,-2.8292175162499995,,,
40.0,2.0,Tm2N3,623.2055209870665,8.097742490005276,Cubic,Ia-3,206.0,m-3,0.1,1.16.2,mp-1202811,-7.5599144127499995,-0.7676832884166658,,,['icsd-644801']
40.0,2.0,Tm2O3,560.1576721567083,9.150946297529503,Cubic,Ia-3,206.0,m-3,0.1,1.16.2,mp-1767,-8.8518500985,-4.093502702416667,,,"['icsd-61270', 'icsd-647581', 'icsd-647578', 'icsd-78582', 'icsd-184541', 'icsd-90669']"
15.0,2.0,Tm2O3,193.7105998887204,9.923255578811622,Monoclinic,C2/m,12.0,2/m,0.1,1.16.2,mp-556253,-8.800654955333332,-4.042307559249999,,,['icsd-160231']
5.0,2.0,Tm2O3,63.62878032845362,10.070075109083408,Trigonal,P-3m1,164.0,-3m,0.1,1.16.2,mp-13067,-8.771554344,-4.013206947916667,,,['icsd-160216']
30.0,2.0,Tm2S3,681.9924606754195,6.3412366662661155,Monoclinic,P2_1/m,11.0,2/m,0.1,1.16.2,mp-1193944,-6.633000323999999,-2.3607962345416658,,,"['icsd-651287', 'icsd-260980']"
20.0,2.0,Tm2S3,441.84357555059245,6.525198565069753,Monoclinic,P2_1/m,11.0,2/m,0.1,1.16.2,mp-2309,-6.6244353225,-2.3522312330416666,,,"['icsd-72009', 'icsd-430', 'icsd-656921']"
10.0,2.0,Tm2S3,241.30482845644195,5.974014452198265,Trigonal,R-3c,167.0,-3m,0.1,1.16.2,mp-14787,-6.6300635869999995,-2.3578594975416665,,,['icsd-67115']
40.0,2.0,Tm2S3,832.6082600445764,6.925506756355403,Tetragonal,I-42d,122.0,-42m,0.1,1.16.2,mp-32933,-6.5870554665,-2.314851377041667,,,
40.0,2.0,Tm2S3,973.2298083170725,5.924843321750607,Cubic,Ia-3,206.0,m-3,0.1,1.16.2,mp-18529,-6.650229735249999,-2.3780256457916664,,,"['icsd-165067', 'icsd-651274', 'icsd-39240']"
20.0,2.0,Tm2S3,412.2417781476304,6.993752739285741,Orthorhombic,Pnma,62.0,mmm,0.1,1.16.2,mp-974,-6.6169630784999995,-2.3447589890416665,,,"['icsd-402457', 'icsd-42070', 'icsd-52206']"
30.0,2.0,Tm2S3,745.277674913389,5.802770891070373,Hexagonal,P6_3cm,185.0,6mm,0.1,1.16.2,mp-1193566,-6.597513215,-2.325309125541666,,,['icsd-651283']
40.0,2.0,Tm2Se3,957.8695147850899,7.970957965737156,Tetragonal,I-42d,122.0,-42m,0.1,1.16.2,mp-32850,-5.9510303672500005,-2.063149311322917,,,
20.0,2.0,Tm2Se3,552.4242036816597,6.910574869935303,Orthorhombic,Fddd,70.0,mmm,0.1,1.16.2,mp-1189318,-6.0385153415,-2.1506342855729166,,,"['icsd-652078', 'icsd-652084']"
5.0,3.0,YbTmO3,76.31291428983629,8.485646600281889,Cubic,Pm-3m,221.0,m-3m,0.1,1.16.2,mp-972058,-7.19836871,-3.0272667425833335,,,
20.0,3.0,TmTlO3,284.70342348098484,9.829333097205172,Orthorhombic,Pnma,62.0,mmm,0.1,1.16.2,mp-1101279,-6.8463349855,-2.5106260447500004,,,
10.0,3.0,TmBiO3,155.422468802458,9.10093457425762,Trigonal,R3c,161.0,3m,0.1,1.16.2,mp-754323,-7.4791634799999995,-2.847885342583333,52.76098837346485,5.545591246666665,
10.0,3.0,TmBiO3,154.18326625164255,9.174080653033887,Trigonal,R-3,148.0,-3,0.1,1.16.2,mp-755216,-7.455337050999999,-2.8240589135833325,,,