nsites,nelements,formula_pretty,volume,density,crystal_system,symbol,number,point_group,symprec,version,material_id,energy_per_atom,formation_energy_per_atom,e_total,e_electronic,icsd
80.0,3.0,CuGeO3,1021.2219494029703,4.791829000217188,Orthorhombic,Pbam,55.0,mmm,0.1,1.16.2,mp-1202570,-6.315011047875,-1.602550916125,,,['icsd-56878']
20.0,3.0,CuGeO3,247.32104725819553,4.946527001095461,Orthorhombic,Pmna,53.0,mmm,0.1,1.16.2,mp-1181636,-6.29691779,-1.5844576582499996,,,
80.0,3.0,CuGeO3,1038.7552285727384,4.710947120363704,Orthorhombic,Cmce,64.0,mmm,0.1,1.16.2,mp-561216,-6.3170465085,-1.6045863767499995,,,
80.0,3.0,CuGeO3,1030.8101295727995,4.747257339075154,Orthorhombic,Pnnm,58.0,mmm,0.1,1.16.2,mp-554624,-6.3118368531249995,-1.5993767213749996,,,
10.0,3.0,CuGeO3,128.8512423547678,4.747258217478113,Orthorhombic,Pmma,51.0,mmm,0.1,1.16.2,mp-21344,-6.304190812,-1.59173068025,,,"['icsd-56699', 'icsd-246664', 'icsd-56606', 'icsd-56607', 'icsd-411017', 'icsd-85324', 'icsd-89401', 'icsd-89407', 'icsd-78475', 'icsd-89402', 'icsd-50329', 'icsd-56700', 'icsd-16834', 'icsd-85326', 'icsd-89400', 'icsd-411018', 'icsd-56701', 'icsd-50330', 'icsd-89406', 'icsd-89403', 'icsd-85325', 'icsd-89404', 'icsd-89405', 'icsd-56702', 'icsd-25754', 'icsd-411019', 'icsd-50331']"
10.0,3.0,CuGeO3,155.68749930553776,3.9289610394505043,Orthorhombic,Pmma,51.0,mmm,0.1,1.16.2,mp-1181557,-6.000480524,-1.2880203922500002,,,
10.0,3.0,CuGeI3,360.9060677265738,4.756537728580233,Tetragonal,I4/mcm,140.0,4/mmm,0.1,1.16.2,mp-1096939,-2.695035615,-0.06656889999999968,,,
5.0,3.0,CuGeI3,168.73725911026125,5.0867939205212185,Monoclinic,Cm,8.0,m,0.1,1.16.2,mp-1096949,-2.898231252,-0.26976453699999964,,,
10.0,3.0,CuAsO3,109.0953559538195,5.6763872811578056,Trigonal,R-3,148.0,-3,0.1,1.16.2,mp-776320,-5.981437807,-1.2617595652499993,,,
10.0,3.0,CuAsO3,142.25676785804905,4.353167165920575,Orthorhombic,Pmma,51.0,mmm,0.1,1.16.2,mp-1178368,-5.997871351,-1.2781931092499996,,,
5.0,3.0,RbCuO3,66.23687800780135,4.939032944011462,Cubic,Pm-3m,221.0,m-3m,0.1,1.16.2,mp-975364,-4.643878798,-0.6599174227500001,,,
10.0,3.0,RbCuF3,141.6246984801055,4.8308806611218085,Tetragonal,I4/mcm,140.0,4/mmm,0.1,1.16.2,mp-8858,-4.501472442,-2.3386369129999998,,,['icsd-69656']
5.0,3.0,RbCuF3,67.41884646593466,5.07404125766559,Cubic,Pm-3m,221.0,m-3m,0.1,1.16.2,mp-554601,-4.491941972,-2.3291064429999997,,,
5.0,3.0,RbCuS3,114.99286581277347,3.540904811756387,Orthorhombic,Pmm2,25.0,mm2,0.1,1.16.2,mp-1219609,-3.916825926,-0.419007857375,,,
20.0,3.0,RbCuCl3,518.1287961724032,3.2737536618669387,Orthorhombic,Pbcn,60.0,mmm,0.1,1.16.2,mp-23055,-3.5900330829999993,-1.4649629384999994,,,"['icsd-40944', 'icsd-15522']"
10.0,3.0,RbCuCl3,243.80084804014547,3.478712353594448,Tetragonal,I4/mcm,140.0,4/mmm,0.1,1.16.2,mp-1232302,-3.6097855119999998,-1.4847153674999998,,,
20.0,3.0,RbCuCl3,536.5859699252209,3.1611449774292484,Monoclinic,C2/c,15.0,2/m,0.1,1.16.2,mp-568857,-3.5875147839999997,-1.4624446394999997,,,['icsd-56838']
20.0,3.0,RbCuCl3,538.9989995212916,3.1469929355984063,Monoclinic,C2,5.0,2,0.1,1.16.2,mp-571305,-3.5878744475,-1.4628043029999998,,,['icsd-15523']
10.0,3.0,RbCuCl3,257.94474002645865,3.2879640104584484,Hexagonal,P6_3/mmc,194.0,6/mmm,0.1,1.16.2,mp-569526,-3.559780761,-1.4347106164999996,,,['icsd-84212']
5.0,3.0,RbCuBr3,136.14377431777643,4.741269884208399,Cubic,Pm-3m,221.0,m-3m,0.1,1.16.2,mp-998196,-3.198902856,-1.2511377095,,,
30.0,3.0,SrCuO3,353.5358139858937,5.612782439880305,Orthorhombic,Pmma,51.0,mmm,0.1,1.16.2,mp-1192969,-5.829770215333334,-1.7040169639166673,,,
15.0,3.0,SrCuO3,178.39607754600405,5.561556161729805,Orthorhombic,Pmmm,47.0,mmm,0.1,1.16.2,mp-29049,-5.832814253333334,-1.707061001916667,,,
5.0,3.0,SrCuO3,56.55239894415372,5.8480266256207125,Cubic,Pm-3m,221.0,m-3m,0.1,1.16.2,mp-1076711,-5.867270727999999,-1.7415174765833328,,,
5.0,3.0,YCuO3,54.10253626517338,6.15230194191815,Cubic,Pm-3m,221.0,m-3m,0.1,1.16.2,mp-1432347,-7.299427534,-2.218278750583333,,,
20.0,3.0,YCuO3,223.45319909981657,5.958386637879136,Orthorhombic,Pnma,62.0,mmm,0.1,1.16.2,mp-1340758,-7.498518463000001,-2.4173696795833335,,,
30.0,3.0,YCuO3,365.1007652871897,5.470081203446913,Hexagonal,P6_3cm,185.0,6mm,0.1,1.16.2,mp-1333124,-7.509970871000001,-2.428822087583334,,,
20.0,3.0,ZrCuF3,354.69286361791535,3.9656214100359017,Triclinic,P1,1.0,1,0.1,1.16.2,mp-677041,-6.1140878515,-2.4378190109999998,,,
20.0,3.0,NbCuO3,279.1947379777856,4.863962376053679,Monoclinic,C2/m,12.0,2/m,0.1,1.16.2,mp-17272,-8.1084560835,-2.3003405147500002,,,['icsd-201899']
5.0,3.0,CuPdO3,54.57419554411089,6.63203672746162,Cubic,Pm-3m,221.0,m-3m,0.1,1.16.2,mp-1184073,-4.919253298,-0.09542237525000061,,,
20.0,3.0,CuAgF3,256.91807602701135,5.905115804774511,Triclinic,P-1,2.0,-1,0.1,1.16.2,mp-1188802,-4.0972582215,-1.5640183063333333,,,['icsd-174407']
5.0,3.0,CuAgF3,64.40539697285884,5.888990141302523,Cubic,Pm-3m,221.0,m-3m,0.1,1.16.2,mp-998414,-4.079691454,-1.5464515388333333,,,
10.0,3.0,CuAgF3,120.99792184569246,6.269244000794276,Trigonal,R-3c,167.0,-3m,0.1,1.16.2,mp-998422,-4.101862777,-1.5686228618333338,,,
5.0,3.0,InCuO3,54.3254369445951,6.919102679006056,Cubic,Pm-3m,221.0,m-3m,0.1,1.16.2,mp-975443,-5.246440988,-0.9082496812499997,,,
5.0,3.0,InCuO3,58.73804230981655,6.3993156993368725,Trigonal,R3m,160.0,3m,0.1,1.16.2,mp-1224030,-5.712232692,-1.3740413852499997,,,
30.0,3.0,CsCuCl3,835.3747005276382,3.611518889694559,Hexagonal,P6_122,178.0,622,0.1,1.16.2,mp-23032,-3.5974058523333334,-1.4893620479195406,8.98192469670307,3.6629509566666663,
10.0,3.0,CsCuCl3,278.1043517809719,3.6161144687931057,Hexagonal,P6_3/mmc,194.0,6/mmm,0.1,1.16.2,mp-675287,-3.54818371,-1.4401399055862067,,,
10.0,3.0,CsCuCl3,301.3253520050113,3.3374462640394604,Monoclinic,C2/c,15.0,2/m,0.1,1.16.2,mp-2456411,-3.594660516,-1.4866167115862066,,,
10.0,3.0,CsCuCl3,279.17535054153336,3.6022419900566653,Hexagonal,P6_3mc,186.0,6mm,0.1,1.16.2,mp-567366,-3.56486152,-1.456817715586207,,,['icsd-2064']
20.0,3.0,CsCuBr3,627.3825242091172,4.617702427819935,Orthorhombic,C222_1,20.0,222,0.1,1.16.2,mp-27336,-3.2331064135,-1.3023676070862067,15.938755650000003,6.81678953,['icsd-10184']
5.0,3.0,BaCuO3,64.17733153205626,6.439350784555453,Cubic,Pm-3m,221.0,m-3m,0.1,1.16.2,mp-1076800,-5.835579016,-1.66392946725,,,
10.0,3.0,LaCuO3,114.50128810538682,7.264223278768729,Trigonal,R-3c,167.0,-3m,0.1,1.16.2,mp-3474,-7.199675158,-2.42461917625,,,"['icsd-73554', 'icsd-9428']"
5.0,3.0,LaCuO3,58.03562468331231,7.165968549859712,Cubic,Pm-3m,221.0,m-3m,0.1,1.16.2,mp-1076070,-7.175454064,-2.4003980822500006,,,
5.0,3.0,CeCuO3,56.30938271874032,7.421349221597679,Cubic,Pm-3m,221.0,m-3m,0.1,1.16.2,mp-977389,-7.310193148000001,-2.3357207562500006,,,
5.0,3.0,PrCuO3,56.9104200105911,7.366070383638502,Cubic,Pm-3m,221.0,m-3m,0.1,1.16.2,mp-1186515,-7.060295566000001,-2.3162598542500006,,,
20.0,3.0,NdCuO3,242.82958559708263,6.996560600353201,Orthorhombic,Pnma,62.0,mmm,0.1,1.16.2,mp-1173386,-7.1255943424999995,-2.3841102952499993,,,
20.0,3.0,SmCuO3,235.78125214601297,7.378061688081909,Orthorhombic,Pnma,62.0,mmm,0.1,1.16.2,mp-770767,-7.1444364705,-2.41286468275,,,
5.0,3.0,SmCuO3,55.266503874215694,7.869181607659484,Cubic,Pm-3m,221.0,m-3m,0.1,1.16.2,mp-1076706,-7.020050262,-2.2884784742499997,,,
10.0,3.0,SmCuO3,113.17609099040732,7.685406908840517,Trigonal,R-3c,167.0,-3m,0.1,1.16.2,mp-772548,-7.110961194,-2.3793894062499996,,,
5.0,3.0,EuCuO3,56.00318956067427,7.813227494755172,Cubic,Pm-3m,221.0,m-3m,0.1,1.16.2,mp-1075902,-7.823912492,-1.9846575712499999,,,
20.0,3.0,EuCuO3,281.02284919719716,6.228186237801624,Monoclinic,C2/c,15.0,2/m,0.1,1.16.2,mp-1338333,-7.8196207095000005,-1.9803657887500008,,,
5.0,3.0,GdCuO3,54.819729366320175,8.142018852244014,Cubic,Pm-3m,221.0,m-3m,0.1,1.16.2,mp-1184481,-8.85020497,-2.247125961249999,,,
5.0,3.0,TbCuO3,54.13507164738998,8.296382371600236,Cubic,Pm-3m,221.0,m-3m,0.1,1.16.2,mp-1187321,-6.967511657999999,-2.252783877249999,,,
5.0,3.0,DyCuO3,53.8174026175188,8.455649621541022,Cubic,Pm-3m,221.0,m-3m,0.1,1.16.2,mp-1183771,-6.945122254,-2.2359103252500008,,,
5.0,3.0,HoCuO3,53.37861048446102,8.600762313082878,Cubic,Pm-3m,221.0,m-3m,0.1,1.16.2,mp-1184736,-6.922426853999999,-2.21809051925,,,
5.0,3.0,ErCuO3,53.403026653845295,8.669239076915824,Cubic,Pm-3m,221.0,m-3m,0.1,1.16.2,mp-1184157,-6.906084548,-2.2046862252499997,,,
5.0,3.0,YbCuO3,52.55835402207376,8.99120968740075,Cubic,Pm-3m,221.0,m-3m,0.1,1.16.2,mp-1187562,-5.976652408,-1.8808761912499996,,,
20.0,3.0,TaCuO3,281.3230122078083,6.905862719148174,Monoclinic,C2/m,12.0,2/m,0.1,1.16.2,mp-756050,-8.664869109,-2.50545902225,,,
20.0,3.0,TaCuS3,397.93832257772516,5.6865816906659115,Orthorhombic,Pnma,62.0,mmm,0.1,1.16.2,mp-3102,-6.740789458499999,-1.0675226783749998,24.44468542333333,12.173919863333332,"['icsd-187747', 'icsd-43272', 'icsd-62537']"
5.0,3.0,TlCuO3,56.751354716769065,9.244007629094678,Cubic,Pm-3m,221.0,m-3m,0.1,1.16.2,mp-1187483,-4.9195667059999995,-0.6591835159166664,,,
5.0,3.0,TlCuF3,68.20646083666094,7.910538609806286,Cubic,Pm-3m,221.0,m-3m,0.1,1.16.2,mp-554973,-4.342521356,-1.9032640121666664,,,
20.0,3.0,TlCuCl3,500.54527904298516,4.966746229309072,Monoclinic,P2_1/c,14.0,2/m,0.1,1.16.2,mp-1105457,-3.4822783455,-1.080786386166667,,,['icsd-239557']
5.0,3.0,TlCuCl3,111.9896865839664,5.54979983674929,Cubic,Pm-3m,221.0,m-3m,0.1,1.16.2,mp-998147,-3.4648696479999996,-1.0633776886666666,,,
5.0,3.0,CuPbO3,58.10400510519205,9.109306585560445,Cubic,Pm-3m,221.0,m-3m,0.1,1.16.2,mp-1184117,-5.448978686,-0.9185947112500003,,,
10.0,3.0,CuPbBr3,364.9918192233401,4.644681914581931,Tetragonal,I4/mcm,140.0,4/mmm,0.1,1.16.2,mp-1096790,-3.061815378,-0.567627632,,,
5.0,3.0,CuBiO3,57.06920415385441,9.326284254314261,Cubic,Pm-3m,221.0,m-3m,0.1,1.16.2,mp-1184051,-5.659147852,-1.1031954652500005,,,
5.0,3.0,AcCuO3,59.92938665681022,9.380470938074593,Cubic,Pm-3m,221.0,m-3m,0.1,1.16.2,mp-864606,-7.035745362,-2.42365579975,,,
5.0,3.0,ThCuO3,57.88331164717667,9.856584723388869,Cubic,Pm-3m,221.0,m-3m,0.1,1.16.2,mp-1187487,-7.738799444,-2.4681732332500004,,,
5.0,3.0,PuCuO3,55.87514304904544,10.566327024609377,Cubic,Pm-3m,221.0,m-3m,0.1,1.16.2,mp-2647102,-8.737421646,-2.095999419249999,,,
5.0,3.0,ZnGaO3,56.102008719176524,5.420391503207033,Cubic,Pm-3m,221.0,m-3m,0.1,1.16.2,mp-971733,-4.974319698,-1.1487385447500003,,,
10.0,3.0,ZnGeO3,99.33942065803808,6.219859986802644,Trigonal,R3c,161.0,3m,0.1,1.16.2,mp-1020631,-6.039638132,-1.89507061225,,,['icsd-183725']
5.0,3.0,ZnGeO3,51.560302230755426,5.9917927255139976,Cubic,Pm-3m,221.0,m-3m,0.1,1.16.2,mp-1016930,-5.555858568,-1.4112910482499998,,,
10.0,3.0,ZnGeO3,103.48547026309927,5.97066705202391,Trigonal,R-3,148.0,-3,0.1,1.16.2,mp-8285,-6.111723113,-1.9671555932499998,,,['icsd-33722']
5.0,3.0,RbZnO3,72.20306426586795,4.573763042162006,Cubic,Pm-3m,221.0,m-3m,0.1,1.16.2,mp-975159,-4.297861338,-0.8817925747499998,,,
30.0,3.0,RbZnF3,432.76486198515374,4.785687884317537,Hexagonal,P6_3/mmc,194.0,6/mmm,0.1,1.16.2,mp-4975,-4.391544364,-2.796601447,,,"['icsd-41618', 'icsd-91835', 'icsd-91836']"
5.0,3.0,SrZnO3,63.04788092844678,5.294603309951961,Cubic,Pm-3m,221.0,m-3m,0.1,1.16.2,mp-1186757,-5.430285769999999,-1.8724251305833328,,,
5.0,3.0,ZrZnO3,71.11550484229129,4.7781155825131005,Cubic,Pm-3m,221.0,m-3m,0.1,1.16.2,mp-1016883,-7.176823657999999,-2.2473215832499998,,,
20.0,3.0,ZnMoO3,226.11301305390992,6.149654093556156,Orthorhombic,Pnma,62.0,mmm,0.1,1.16.2,mp-1379617,-7.232922127499999,-1.8438301567499997,,,
5.0,3.0,ZnRhO3,58.92249507561895,6.096070583751542,Cubic,Pm-3m,221.0,m-3m,0.1,1.16.2,mp-1016880,-5.378909364,-0.68608584125,,,
10.0,3.0,ZnAgF3,137.55397762368645,5.559655034433153,Trigonal,R-3,148.0,-3,0.1,1.16.2,mp-998537,-4.002815995,-2.0374686918333333,8.640647583333335,2.8669491833333347,
5.0,3.0,ZnAgF3,67.57226876423228,5.658775990415144,Cubic,Pm-3m,221.0,m-3m,0.1,1.16.2,mp-14099,-3.9671923999999996,-2.0018450968333332,,,['icsd-28950']
10.0,3.0,ZnSnO3,117.57007878380284,6.556764826849906,Trigonal,R3c,161.0,3m,0.1,1.16.2,mp-13334,-5.962064889,-1.9401885692500003,17.57663766999815,5.004048456666669,"['icsd-245943', 'icsd-165122']"
5.0,3.0,ZnSnO3,65.39671100186958,5.893869473325446,Cubic,Pm-3m,221.0,m-3m,0.1,1.16.2,mp-1016902,-5.29058385,-1.2687075302500006,,,
20.0,3.0,ZnSnO3,231.03061953050977,6.67339557696861,Orthorhombic,Pnma,62.0,mmm,0.1,1.16.2,mp-1337169,-5.9206463105,-1.8987699907500002,,,
10.0,3.0,ZnSnO3,119.39662912889759,6.456458301074723,Trigonal,R-3,148.0,-3,0.1,1.16.2,mp-14628,-5.948557964,-1.92668164425,,,['icsd-50404']
10.0,3.0,ZnSnS3,206.78893400063478,4.501907707628915,Trigonal,R3c,161.0,3m,0.1,1.16.2,mp-1093994,-4.218000902,-0.6822678888750004,,,
20.0,3.0,ZnSbO3,246.05121608245983,6.348342089104972,Monoclinic,P2_1/m,11.0,2/m,0.1,1.16.2,mp-1348382,-5.708569843499999,-1.6628076467499995,,,
5.0,3.0,BaZnO3,69.67818890775195,5.975383989729056,Cubic,Pm-3m,221.0,m-3m,0.1,1.16.2,mp-1183405,-5.448701428,-1.84494449125,,,
5.0,3.0,LaZnO3,60.61046362504101,6.912586053211705,Cubic,Pm-3m,221.0,m-3m,0.1,1.16.2,mp-1184965,-6.730767929999999,-2.523604560249999,,,
5.0,3.0,ErZnO3,56.07202994545843,8.311758825701606,Cubic,Pm-3m,221.0,m-3m,0.1,1.16.2,mp-1184207,-6.419305086,-2.28579937525,,,
5.0,3.0,YbZnO3,56.25730419802639,8.45502238151807,Cubic,Pm-3m,221.0,m-3m,0.1,1.16.2,mp-1187797,-5.47792792,-1.9500443152499998,,,
5.0,3.0,HfZnO3,67.7504521495989,7.154294748629557,Cubic,Pm-3m,221.0,m-3m,0.1,1.16.2,mp-1016819,-7.653380586,-2.4419808312500004,,,
5.0,3.0,ZnWO3,65.05524987683661,7.5872522044252415,Orthorhombic,Amm2,38.0,mm2,0.1,1.16.2,mp-1427680,-7.269389574,-1.4578015792500003,,,
20.0,3.0,ZnWO3,227.89505864557682,8.663471528886411,Orthorhombic,Pnma,62.0,mmm,0.1,1.16.2,mp-1340971,-7.661755929500001,-1.8501679347500009,,,
5.0,3.0,ZnOsO3,59.17670270509917,8.520269119854007,Cubic,Pm-3m,221.0,m-3m,0.1,1.16.2,mp-1016836,-6.425465258,-0.9600298232500002,,,
5.0,3.0,ZnIrO3,59.639716349152586,8.509445632291017,Cubic,Pm-3m,221.0,m-3m,0.1,1.16.2,mp-1016926,-5.698363244,-0.7107144592499999,,,
5.0,3.0,ZnAuO3,60.89549963874947,8.463478774783361,Cubic,Pm-3m,221.0,m-3m,0.1,1.16.2,mp-971700,-4.029493814,-0.1547554652499997,,,
5.0,3.0,TlZnF3,69.88057354988399,7.765297257904709,Cubic,Pm-3m,221.0,m-3m,0.1,1.16.2,mp-998745,-4.242491584,-2.3711268521666664,21.771786747401418,3.356226859200467,
10.0,3.0,ZnPbO3,128.45820493772402,8.288778142141023,Trigonal,R3c,161.0,3m,0.1,1.16.2,mp-1078329,-5.4368575450000005,-1.4743661822500003,,,['icsd-196158']
5.0,3.0,ZnBiO3,59.84143837094604,8.945928088642482,Cubic,Pm-3m,221.0,m-3m,0.1,1.16.2,mp-971706,-5.210530708,-1.2224709332500006,,,
20.0,3.0,ZnBiO3,265.9450071380185,8.051848164377654,Monoclinic,P2_1/c,14.0,2/m,0.1,1.16.2,mp-1378105,-5.510322412,-1.5222626372500003,,,
80.0,2.0,Ga2O3,1049.8054666490632,4.743864295561089,Triclinic,P1,1.0,1,0.1,1.16.2,mp-1244938,-6.281954271625,-2.102702635875,,,
10.0,2.0,Ga2O3,105.73376293730534,5.887587999533202,Monoclinic,C2/m,12.0,2/m,0.1,1.16.2,mp-886,-6.449011680999999,-2.269760045249999,11.176961273256566,4.03051794000065,"['icsd-603563', 'icsd-166198', 'icsd-184327', 'icsd-83645', 'icsd-34243']"
10.0,2.0,Ga2O3,96.49825392087851,6.451068371927076,Orthorhombic,Cmcm,63.0,mmm,0.1,1.16.2,mp-13134,-6.16493657,-1.9856849342499998,,,['icsd-162252']
80.0,2.0,Ga2O3,1076.5819511992047,4.6258760561367085,Triclinic,P1,1.0,1,0.1,1.16.2,mp-1245167,-6.29216319,-2.11291155425,,,
80.0,2.0,Ga2O3,1044.7156576325071,4.766976195041549,Triclinic,P1,1.0,1,0.1,1.16.2,mp-1244900,-6.3020344905000005,-2.1227828547500005,,,
10.0,2.0,Ga2O3,96.9706975896667,6.419638605152237,Trigonal,R-3c,167.0,-3m,0.1,1.16.2,mp-1243,-6.419218121,-2.23996648525,,,"['icsd-33644', 'icsd-635016', 'icsd-166199', 'icsd-27431']"
40.0,2.0,Ga2O3,453.6473264023087,5.488993741037502,Triclinic,P1,1.0,1,0.1,1.16.2,mp-685090,-6.23201548725,-2.0527638515,,,
80.0,2.0,Ga2O3,1013.7510495437978,4.91258151867016,Triclinic,P1,1.0,1,0.1,1.16.2,mp-1244932,-6.262547521625001,-2.0832958858750006,,,
80.0,2.0,Ga2O3,1053.831911834626,4.725739099939927,Triclinic,P1,1.0,1,0.1,1.16.2,mp-1245018,-6.27438010925,-2.0951284735,,,
10.0,2.0,Ga2O3,199.59098592361457,3.1189626672489643,Monoclinic,C2/c,15.0,2/m,0.1,1.16.2,mp-1181342,-4.568474358,-0.3892227222499997,,,
10.0,2.0,Ga2S3,219.106108358102,3.5717040398816575,Monoclinic,Cc,9.0,m,0.1,1.16.2,mp-539,-4.657387149,-0.9642788198750004,10.230235533333333,5.871145356666666,"['icsd-488', 'icsd-635243', 'icsd-34647', 'icsd-409550']"
5.0,2.0,Ga2S3,109.37637253391539,3.577473609040738,Orthorhombic,Imm2,44.0,mm2,0.1,1.16.2,mp-1224796,-4.653541888,-0.9604335588750004,,,
10.0,2.0,Ga2S3,217.85493355381948,3.592216892311277,Monoclinic,Cc,9.0,m,0.1,1.16.2,mp-32616,-4.656201674,-0.9630933448750006,9.98504346076742,6.058393236659885,
10.0,2.0,Ga2S3,248.81299584799115,3.1452624478806923,Trigonal,P3m1,156.0,3m,0.1,1.16.2,mp-1224879,-4.172636721,-0.4795283918750002,,,
10.0,2.0,Ga2Se3,251.7131984069082,4.965206661647674,Monoclinic,Cc,9.0,m,0.1,1.16.2,mp-1340,-4.176932305,-0.8681470094062504,12.088060103333333,7.996299056666667,"['icsd-635377', 'icsd-35028', 'icsd-635360', 'icsd-635373', 'icsd-635356', 'icsd-37168']"
10.0,2.0,Ga2Se3,382.5101099959583,3.267385663526198,Monoclinic,Cc,9.0,m,0.1,1.16.2,mp-672302,-3.743085952,-0.4343006564062499,,,
5.0,2.0,Ga2Se3,126.5463281440907,4.93814426654696,Orthorhombic,Imm2,44.0,mm2,0.1,1.16.2,mp-1224809,-4.166301304,-0.8575160084062503,,,
20.0,2.0,Ga2I3,790.5244090935929,4.37049134083016,Monoclinic,P2_1/c,14.0,2/m,0.1,1.16.2,mp-636675,-2.7842688185,-0.6890105994999999,,,['icsd-24822']
5.0,3.0,GaGeO3,52.90533441225176,5.97486459308068,Cubic,Pm-3m,221.0,m-3m,0.1,1.16.2,mp-1183980,-5.900624318,-1.4023863157500003,,,
30.0,3.0,YGaO3,382.2256825292596,5.386016237384248,Hexagonal,P6_3cm,185.0,6mm,0.1,1.16.2,mp-17853,-8.002057152333334,-3.1351304984166677,13.399331123317543,4.242482850000001,['icsd-1999']
20.0,3.0,GaMoN3,344.57439649979295,4.003383937120838,Triclinic,P-1,2.0,-1,0.1,1.16.2,mp-1246681,-7.955962789499999,-0.17931660799999918,,,
10.0,3.0,InGaO3,115.84663498527046,6.666407292106624,Hexagonal,P6_3/mmc,194.0,6/mmm,0.1,1.16.2,mp-8098,-6.255757647,-2.1317884697500005,13.019858616661606,4.617076499999999,['icsd-30339']
30.0,3.0,InGaS3,718.6195971699804,3.892238095678459,Hexagonal,P6_1,169.0,6,0.1,1.16.2,mp-504951,-4.560274773333333,-0.9224489027083332,10.205859066700189,5.809947333333333,
10.0,3.0,InGaS3,253.32581814116182,3.6804230916664795,Trigonal,P3m1,156.0,3m,0.1,1.16.2,mp-1224507,-4.261768841,-0.6239429703750006,,,
10.0,3.0,InGaS3,234.95748088706998,3.968148565783092,Orthorhombic,Cmc2_1,36.0,mm2,0.1,1.16.2,mp-19885,-4.543096339,-0.9052704683750008,11.696116826666662,6.958184109999998,['icsd-62340']
25.0,3.0,InGaS3,609.2148727942556,3.8260153865158,Triclinic,P1,1.0,1,0.1,1.16.2,mp-1224212,-4.4842644076,-0.8464385369749999,,,
30.0,3.0,InGaSe3,819.5928046815503,5.122929557129563,Hexagonal,P6_1,169.0,6,0.1,1.16.2,mp-504952,-4.0991458739999995,-0.8456430369062498,12.210389283364057,7.170346373333335,
5.0,3.0,GaSnO3,58.05563839429101,6.762534269224833,Cubic,Pm-3m,221.0,m-3m,0.1,1.16.2,mp-1184243,-5.8938217139999995,-1.5182749117500003,,,
20.0,3.0,CsGaS3,596.6264354825277,3.3267584966791,Monoclinic,P2_1/c,14.0,2/m,0.1,1.16.2,mp-562726,-4.4019206969999995,-1.1353510979612067,,,['icsd-281723']
20.0,3.0,CsGaSe3,668.8176749754033,4.36484250813304,Monoclinic,P2_1/c,14.0,2/m,0.1,1.16.2,mp-510283,-3.9549631805000005,-1.0727166149924572,,,['icsd-98670']
10.0,3.0,LaGaO3,121.6841724938779,7.0040105024818375,Orthorhombic,Imma,74.0,mmm,0.1,1.16.2,mp-556983,-7.654491901999999,-3.0936580497499997,,,
10.0,3.0,LaGaO3,121.62970279595109,7.007147123944987,Trigonal,R-3c,167.0,-3m,0.1,1.16.2,mp-3336,-7.654005623000001,-3.0931717707500006,,,"['icsd-88351', 'icsd-88350', 'icsd-160270', 'icsd-160266', 'icsd-160267', 'icsd-153308', 'icsd-160265', 'icsd-51287', 'icsd-83349', 'icsd-160268', 'icsd-182542', 'icsd-153310', 'icsd-182541', 'icsd-182540', 'icsd-182543', 'icsd-160269', 'icsd-153309', 'icsd-51286']"