material_id,formula_pretty,icsd,crystal_system,symbol,number,point_group,nsites,nelements,volume,density,energy_per_atom,formation_energy_per_atom
mp-1340758,YCuO3,,Orthorhombic,Pnma,62.0,mmm,20.0,3.0,223.45319909981700,5.958386637879140,-7.498518463000000,-2.4173696795833300
mp-1333124,YCuO3,,Hexagonal,P6_3cm,185.0,6mm,30.0,3.0,365.1007652871900,5.470081203446910,-7.509970871000000,-2.428822087583330
mp-755109,YErO3,,Orthorhombic,Pnma,62.0,mmm,20.0,3.0,282.87836115738900,7.141933728330590,-9.09208816,-3.9172369485833300
mp-1416093,YFeO3,,Cubic,Pm-3m,221.0,m-3m,5.0,3.0,58.55670870199430,5.465937800635580,-8.454524802,-2.4992131105833300
mp-1376289,YFeO3,,Hexagonal,P6_3cm,185.0,6mm,30.0,3.0,376.5719109281060,5.099700507977770,-8.781297638666670,-2.825985947250000
mp-1275986,YFeO3,,Hexagonal,P6_3/mmc,194.0,mmm,20.0,3.0,252.68252178655900,5.066710990725310,-8.786369047000000,-2.831057355583330
mp-17853,YGaO3,['icsd-1999'],Hexagonal,P6_3cm,185.0,6mm,30.0,3.0,382.2256825292600,5.386016237384250,-8.002057152333330,-3.1351304984166700
mp-768889,YHoO3,,Hexagonal,P6_3cm,185.0,6mm,30.0,3.0,456.3680585577810,6.589520282530560,-9.091635003333330,-3.913845779916670
mp-504607,YInO3,['icsd-251'],Hexagonal,P6_3cm,185.0,6mm,30.0,3.0,421.0249555696460,5.956810290032710,-7.7918296520000000,-2.980185456583330
mp-1101170,YLuO3,,Orthorhombic,Pnma,62.0,mmm,20.0,3.0,271.33809018975500,7.6343732190994300,-9.13767567,-3.9721781165833300
mp-754226,YLuO3,,Hexagonal,P6_3/mmc,194.0,6/mmm,10.0,3.0,148.49016885400300,6.975196624306340,-9.140512512000000,-3.9750149585833300
mp-1237973,YMgS3,,Monoclinic,C2/m,12.0,2/m,10.0,3.0,261.7865339868310,2.656565938697760,-5.654397912,-1.559177759208330
mp-1232166,YMgS3,,Monoclinic,C2/m,12.0,2/m,20.0,3.0,511.3976916245510,2.7198135650159900,-5.6131151395000000,-1.517894986708330
mp-1232305,YMgSe3,,Monoclinic,C2/m,12.0,2/m,10.0,3.0,287.56634160607800,4.043168126265260,-5.151392949,-1.4404958297395800
mp-1232338,YMgSe3,,Trigonal,R-3,148.0,-3,30.0,3.0,799.1719285192390,4.364564213570520,-5.2202584540000000,-1.509361334739580
mp-20699,YMnO3,"['icsd-188567', 'icsd-190398', 'icsd-166217', 'icsd-162207', 'icsd-56617', 'icsd-236365']",Orthorhombic,Pnma,62.0,mmm,20.0,3.0,235.56508314016200,5.409312604726620,-9.1073859565,-3.0136754486695400
mp-1434307,YMnO3,,Cubic,Pm-3m,221.0,m-3m,5.0,3.0,58.06198077710700,5.486572953630490,-8.80542923,-2.7117187221695400
mp-19227,YMnO3,"['icsd-422990', 'icsd-181182', 'icsd-422982', 'icsd-73361', 'icsd-422989', 'icsd-182284']",Hexagonal,P6_3/mmc,194.0,6/mmm,10.0,3.0,125.05119599578100,5.094893988485080,-9.109891136,-3.0161806281695400
mp-19385,YMnO3,"['icsd-290276', 'icsd-182286', 'icsd-164405', 'icsd-195446', 'icsd-280590', 'icsd-162200', 'icsd-422984', 'icsd-191978', 'icsd-182285', 'icsd-250880', 'icsd-195447', 'icsd-422983', 'icsd-181183', 'icsd-422985', 'icsd-163216', 'icsd-247621', 'icsd-163217', 'icsd-280589', 'icsd-422988', 'icsd-98061', 'icsd-422986', 'icsd-98060', 'icsd-422987', 'icsd-247620', 'icsd-154127', 'icsd-164406']",Hexagonal,P6_3cm,185.0,6mm,30.0,3.0,373.2740106140470,5.120548727866360,-9.130481213333330,-3.0367707055028700
mp-989604,YMoN3,,Monoclinic,C2/c,15.0,2/m,20.0,3.0,298.7641608959710,5.043707675332530,-9.5667560595,-1.1024348598333300
mp-1379411,YMoO3,,Orthorhombic,Pnma,62.0,mmm,20.0,3.0,245.85946991487700,6.290530791174840,-9.328163984,-2.8977265125833300
mp-1371109,YMoO3,,Hexagonal,P6_3cm,185.0,6mm,30.0,3.0,428.9673729625230,5.408056637689460,-9.178302571,-2.7478650995833300
mp-1445377,YMoO3,,Hexagonal,P6_3/mmc,194.0,6/mmm,10.0,3.0,144.31013645546900,5.358551394200570,-9.129895720000000,-2.699458248583330
mp-1503976,YMoO3,,Cubic,Pm-3m,221.0,m-3m,5.0,3.0,68.32803813085470,5.658682029036140,-8.753013688,-2.3225762165833300
mp-19242,YNiO3,"['icsd-92047', 'icsd-88043', 'icsd-191794', 'icsd-89417']",Orthorhombic,Pnma,62.0,mmm,20.0,3.0,210.04992412781700,6.185143049224780,-7.892334481000000,-2.474999695583330
mp-1346989,YNiO3,,Hexagonal,P6_3cm,185.0,6mm,30.0,3.0,375.84041756987200,5.185134837052860,-7.821909746666670,-2.4045749612500000
mp-1433326,YNiO3,,Cubic,Pm-3m,221.0,m-3m,5.0,3.0,53.025242522589800,6.125331853295540,-7.682370102000000,-2.265035316583330
mp-1399857,YNiO3,,Hexagonal,P6_3/mmc,194.0,6/mmm,10.0,3.0,123.87001707332000,5.24416181940283,-7.637785980000000,-2.2204511945833300
mp-979436,YOsO3,,Cubic,Pm-3m,221.0,m-3m,5.0,3.0,62.30532592089450,8.718658670203750,-8.362913752,-1.8561328165833300
mp-989647,YReN3,,Orthorhombic,Pnma,62.0,mmm,20.0,3.0,231.49274444991700,9.099406619113890,-9.6721203255,-0.8880237108333330
mp-989628,YReN3,,Monoclinic,C2/c,15.0,2/m,20.0,3.0,318.28150219661900,6.618187348579110,-9.663290886,-0.8791942713333340
mp-998367,YReN3,,Triclinic,P1,1.0,1,5.0,3.0,61.4222483000434,8.573630359615680,-9.546440228,-0.7623436133333340
mp-989611,YReN3,,Trigonal,R-3c,167.0,-3m,10.0,3.0,118.40917513126800,8.894777827770580,-9.639656984,-0.8555603693333340
mp-1207629,YRhO3,,Orthorhombic,Pnma,62.0,mmm,20.0,3.0,228.16866006717200,6.981031070639310,-8.290526322,-2.5563572985833300
mp-1416619,YSbO3,,Cubic,Pm-3m,221.0,m-3m,5.0,3.0,76.78692265678540,5.593683732708100,-7.006274104000000,-1.9191664065833300
mp-1347073,YSbO3,,Hexagonal,P6_3cm,185.0,6mm,30.0,3.0,466.31501448263800,5.526587137150410,-7.762523985666670,-2.6754162882500000
mp-1340878,YSbO3,,Orthorhombic,Pnma,62.0,mmm,20.0,3.0,296.8252317901600,5.788210895138800,-7.6891270590000000,-2.6020193615833300
mp-1389035,YSbO3,,Hexagonal,P6_3/mmc,194.0,6/mmm,10.0,3.0,158.70455487683000,5.412847293303270,-7.745969549,-2.658861851583330
mp-769007,YScO3,,Hexagonal,P6_3cm,185.0,6mm,30.0,3.0,402.56854913574500,4.50088173355385,-9.478454808666670,-3.9506535382500000
mp-755165,YScO3,['icsd-237285'],Orthorhombic,Pnma,62.0,mmm,20.0,3.0,251.95223031798200,4.794330594656990,-9.469694941,-3.941893670583330
mp-768479,YScO3,,Hexagonal,P6_3/mmc,194.0,6/mmm,10.0,3.0,138.94105351591000,4.3469595761602700,-9.467514688,-3.939713417583330
mp-7792,YScS3,,Orthorhombic,Pnma,62.0,mmm,20.0,3.0,426.59561875393600,3.5820174801827900,-7.328090181,-2.2864322172083300
mp-769404,YSeO3,,Monoclinic,P2_1/c,14,2/m,40,3,621.10352510129,4.61695255123261,-7.469001202,-2.50851145705208
mp-1187862,YSiO3,,Cubic,Pm-3m,221.0,m-3m,5.0,3.0,51.624579106919600,5.306999070894730,-8.15080226,-2.8044312045833300
mp-1412687,YSnO3,,Cubic,Pm-3m,221.0,m-3m,5.0,3.0,71.05362594266690,5.97375729057571,-7.235911880000000,-2.172690059583330
mp-1394022,YSnO3,,Hexagonal,P6_3/mmc,194.0,6/mmm,10.0,3.0,151.63367792256700,5.598454404220120,-7.8559475050000000,-2.792725684583330
mp-1376465,YSnO3,,Hexagonal,P6_3cm,185.0,6mm,30.0,3.0,449.90207595569200,5.6606600237867900,-7.867746203,-2.804524382583330
mp-1343054,YSnO3,,Monoclinic,P2_1/c,14.0,2/m,20.0,3.0,288.862121719322,5.877643125660860,-7.845878460500000,-2.782656640083330
mp-989640,YTcN3,,Monoclinic,C2/c,15.0,2/m,20.0,3.0,311.92124900351700,4.874826380670620,-9.1581330095,-0.7908140428333330
mp-989557,YTcN3,,Orthorhombic,Amm2,38.0,mm2,5.0,3.0,59.9919085742968,6.33652924815243,-9.120861510000000,-0.753542543333333
mp-1436662,YTiO3,,Cubic,Pm-3m,221.0,m-3m,5.0,3.0,59.0010722886116,5.200236792322230,-9.207710448,-3.3673045952500000
mp-4355,YTiO3,"['icsd-174118', 'icsd-84610', 'icsd-84608', 'icsd-84609', 'icsd-20903', 'icsd-8150']",Orthorhombic,Pnma,62.0,mmm,20.0,3.0,235.49787086692000,5.211419462472950,-9.452474175500000,-3.6120683227500000
mp-1342458,YTiO3,,Hexagonal,P6_3cm,185.0,6mm,30.0,3.0,386.4233566548510,4.76399071046448,-9.455553118333330,-3.6151472655833300
mp-1443298,YTiO3,,Hexagonal,P6_3/mmc,194.0,6/mmm,10.0,3.0,130.09900526231200,4.716708575643250,-9.432454660000000,-3.5920488072500000
mp-766256,YTmO3,,Monoclinic,C2,5.0,2,40.0,3.0,577.9217459824530,7.030105820678190,-9.18579231675,-4.029317782666670
mp-768353,YTmO3,,Hexagonal,P6_3cm,185.0,6mm,30.0,3.0,448.20930423084500,6.798471705032730,-9.112848489666670,-3.9563739555833300
mp-753995,YTmO3,,Orthorhombic,Pnma,62.0,mmm,20.0,3.0,278.62127367824600,7.290992135474120,-9.1004170215,-3.943942487416670
mp-18883,YVO3,"['icsd-250766', 'icsd-250767', 'icsd-155477', 'icsd-95579', 'icsd-190290', 'icsd-155480', 'icsd-246953', 'icsd-95577', 'icsd-95578', 'icsd-155476', 'icsd-246954', 'icsd-250765', 'icsd-155478', 'icsd-155479', 'icsd-185836']",Orthorhombic,Pnma,62.0,mmm,20.0,3.0,224.27321131213800,5.563301518482910,-9.353054021000000,-3.274965357583340
mp-1504764,YVO3,,Tetragonal,P4/mmm,123.0,4/mmm,5.0,3.0,59.63050756183240,5.230961248124890,-8.999762156,-2.9216734925833300
mp-1402500,YVO3,,Hexagonal,P6_3/mmc,194.0,6/mmm,10.0,3.0,132.7156948137550,4.700647872878920,-9.199071232,-3.120982568583330
mp-1375509,YVO3,,Hexagonal,P6_3cm,185.0,6mm,30.0,3.0,394.4852380193320,4.744282080030760,-9.272332514333330,-3.1942438509166700
mp-989407,YWN3,,Orthorhombic,Pmc2_1,26.0,mm2,10.0,3.0,132.66287878756400,7.879840413344930,-10.055900034,-1.169082810333330
mp-989645,YWN3,,Monoclinic,P2_1/m,11.0,2/m,10.0,3.0,156.86452342380100,6.664109199482080,-10.079925512000000,-1.1931082883333300
mp-989615,YWN3,,Monoclinic,C2/c,15.0,2/m,20.0,3.0,303.4933381065930,6.88886497570351,-10.0944822165,-1.2076649928333300
mp-989609,YWN3,,Orthorhombic,Cmcm,63.0,mmm,10.0,3.0,139.32116428808000,7.503255653673590,-10.072038183,-1.1852209593333300
mp-989576,YWN3,,Trigonal,R3c,161.0,3m,10.0,3.0,125.10776915767200,8.355694619600070,-10.048542458,-1.1617252343333300
mp-989617,YWN3,,Orthorhombic,Ama2,40.0,mm2,10.0,3.0,151.49849982350300,6.900149604377460,-10.070145615,-1.1833283913333300
mp-1375712,YWO3,,Hexagonal,P6_3cm,185.0,6mm,30.0,3.0,422.57259174608300,7.562364940003580,-9.422868965,-2.5699354695833300
mp-1369924,YWO3,,Orthorhombic,Pnma,62.0,mmm,20.0,3.0,262.56262280021100,8.113996116039350,-9.5931023435,-2.740168848083330
mp-1401965,YWO3,,Hexagonal,P6_3/mmc,194.0,6/mmm,10.0,3.0,143.10874265347000,7.443403044832640,-9.407761546,-2.554828050583330
mp-1402304,YWO3,,Cubic,Pm-3m,221.0,m-3m,5.0,3.0,69.09315987921500,7.708549244752750,-9.008857254,-2.155923758583330
mp-1215965,YZrO3,,Orthorhombic,I2_12_12_1,24.0,222,40.0,3.0,576.0795248103740,5.2606006344276400,-9.583364237250000,-3.6125166618333300
mp-766243,YZrO3,,Monoclinic,C2,5.0,2,40.0,3.0,571.3564549400060,5.304086945191580,-9.6254433785,-3.654595803083330
mp-998537,ZnAgF3,,Trigonal,R-3,148.0,-3,10.0,3.0,137.55397762368600,5.559655034433150,-4.002815995,-2.0374686918333300
mp-14099,ZnAgF3,['icsd-28950'],Cubic,Pm-3m,221.0,m-3m,5.0,3.0,67.57226876423230,5.658775990415140,-3.9671924000000000,-2.0018450968333300
mp-971700,ZnAuO3,,Cubic,Pm-3m,221.0,m-3m,5.0,3.0,60.89549963874950,8.463478774783360,-4.029493814,-0.1547554652500000
mp-971706,ZnBiO3,,Cubic,Pm-3m,221.0,m-3m,5.0,3.0,59.84143837094600,8.945928088642480,-5.210530708,-1.2224709332500000
mp-1378105,ZnBiO3,,Monoclinic,P2_1/c,14.0,2/m,20.0,3.0,265.9450071380190,8.051848164377650,-5.510322412,-1.5222626372500000
mp-971704,ZnBO3,,Cubic,Pm-3m,221.0,m-3m,5.0,3.0,38.57356425344680,5.34742323855386,-5.595359676000000,-1.0395193730833300
mp-9812,ZnCO3,['icsd-100679'],Trigonal,R-3c,167.0,-3m,10.0,3.0,93.45393807406120,4.4569833415877600,-6.8889366040000000,-1.8232415567500000
mp-758652,ZnCoO3,,Trigonal,R-3,148.0,-3,10.0,3.0,96.65191092533510,5.92182722329932,-5.947583421,-1.3059579132500000
mp-1369159,ZnCoO3,,Orthorhombic,Pnma,62.0,mmm,20.0,3.0,182.56240000135200,6.270249704181290,-5.8525985185,-1.2109730107500000
mp-753026,ZnCoO3,,Monoclinic,C2/c,15.0,2/m,20.0,3.0,207.1137448730860,5.526971835232620,-5.973560132,-1.3319346242500000
mp-1341277,ZnCrO3,,Orthorhombic,Pnma,62.0,mmm,20.0,3.0,200.16963281444000,5.48851766439863,-6.9905993775,-1.8400279347500000
mp-1100778,ZnCuO3,,Cubic,Pm-3m,221.0,m-3m,5.0,3.0,52.11003339679050,5.638793192137560,-4.581666934000000,-0.5418636512499990
mp-755535,ZnFeO3,,Monoclinic,C2/c,15.0,2/m,20.0,3.0,227.47596740388900,4.942058599253890,-6.3785908425,-1.4646246517500000
mp-755099,ZnFeO3,,Trigonal,R-3,148.0,-3,10.0,3.0,105.60542373837700,5.322641210251820,-6.380725602,-1.4667594112500000
mp-1373518,ZnFeO3,,Orthorhombic,Pnma,62.0,mmm,20.0,3.0,203.6930685207770,5.51908599048533,-6.333410405,-1.4194442142500000
mp-971733,ZnGaO3,,Cubic,Pm-3m,221.0,m-3m,5.0,3.0,56.102008719176500,5.420391503207030,-4.974319698,-1.1487385447500000
mp-1020631,ZnGeO3,['icsd-183725'],Trigonal,R3c,161.0,3m,10.0,3.0,99.33942065803810,6.219859986802640,-6.039638132,-1.89507061225
mp-1016930,ZnGeO3,,Cubic,Pm-3m,221.0,m-3m,5.0,3.0,51.560302230755400,5.9917927255140000,-5.555858568,-1.4112910482500000
mp-8285,ZnGeO3,['icsd-33722'],Trigonal,R-3,148.0,-3,10.0,3.0,103.48547026309900,5.97066705202391,-6.111723113,-1.9671555932500000
mp-1016926,ZnIrO3,,Cubic,Pm-3m,221.0,m-3m,5.0,3.0,59.639716349152600,8.509445632291020,-5.698363244,-0.7107144592500000
mp-1379617,ZnMoO3,,Orthorhombic,Pnma,62.0,mmm,20.0,3.0,226.11301305391000,6.149654093556160,-7.232922127500000,-1.8438301567500000
mp-1378884,ZnNiO3,,Orthorhombic,Pnma,62.0,mmm,20.0,3.0,192.01812681303300,5.953183158870450,-5.408729711,-1.0327404262500000
mp-1016836,ZnOsO3,,Cubic,Pm-3m,221.0,m-3m,5.0,3.0,59.17670270509920,8.520269119854010,-6.425465258,-0.9600298232500000
mp-1078329,ZnPbO3,['icsd-196158'],Trigonal,R3c,161.0,3m,10.0,3.0,128.45820493772400,8.288778142141020,-5.4368575450000000,-1.4743661822500000
mp-3342,ZnPS3,"['icsd-648089', 'icsd-648084', 'icsd-201933', 'icsd-79557']",Monoclinic,C2/m,12.0,2/m,10.0,3.0,226.03806418074100,2.8294605894668800,-4.523797902,-0.7073187585416660
mp-1016880,ZnRhO3,,Cubic,Pm-3m,221.0,m-3m,5.0,3.0,58.92249507561900,6.096070583751540,-5.378909364,-0.68608584125
mp-1348382,ZnSbO3,,Monoclinic,P2_1/m,11.0,2/m,20.0,3.0,246.05121608246000,6.348342089104970,-5.708569843500000,-1.6628076467500000
mp-5338,ZnSeO3,"['icsd-29500', 'icsd-61341']",Orthorhombic,Pbca,61,mmm,40,3,538.653978109893,4.74416993043778,-5.42233731375,-1.50319306946875
mp-4682,ZnSeO3,"['icsd-163221', 'icsd-51856', 'icsd-499']",Orthorhombic,Pnma,62,mmm,20,3,240.839329210071,5.3053336725387,-5.360195821,-1.44105157671875
mp-1178612,ZnSiO3,,Orthorhombic,Ibam,72.0,mmm,20.0,3.0,271.8030829899100,3.4577114196668000,-6.9622586685000000,-2.6572331137500000
mp-562182,ZnSiO3,"['icsd-158517', 'icsd-167185', 'icsd-1860', 'icsd-159549', 'icsd-158515']",Monoclinic,C2/c,15.0,2/m,20.0,3.0,234.7613099162200,4.003285823759670,-6.95038914,-2.64536358525
mp-641917,ZnSiO3,"['icsd-167184', 'icsd-158516']",Monoclinic,P2_1/c,14.0,2/m,40.0,3.0,457.4908908673710,4.108569777960080,-6.941780636,-2.63675508125
mp-1016876,ZnSiO3,,Cubic,Pm-3m,221.0,m-3m,5.0,3.0,44.4463555048899,5.286241207400340,-6.420110908000000,-2.115085353250000
mp-619034,ZnSiO3,"['icsd-1861', 'icsd-167183']",Orthorhombic,Pbca,61.0,mmm,80.0,3.0,917.856103283554,4.09570354478328,-6.945300627875,-2.6402750731250000
mp-1020623,ZnSiO3,['icsd-167186'],Trigonal,R-3,148.0,-3,10.0,3.0,93.45862085830960,5.027982519556380,-6.850865412,-2.5458398572500000
mp-13334,ZnSnO3,"['icsd-245943', 'icsd-165122']",Trigonal,R3c,161.0,3m,10.0,3.0,117.57007878380300,6.556764826849910,-5.962064889,-1.9401885692500000
mp-1016902,ZnSnO3,,Cubic,Pm-3m,221.0,m-3m,5.0,3.0,65.39671100186960,5.893869473325450,-5.29058385,-1.2687075302500000
mp-1337169,ZnSnO3,,Orthorhombic,Pnma,62.0,mmm,20.0,3.0,231.03061953051000,6.67339557696861,-5.9206463105,-1.8987699907500000
mp-14628,ZnSnO3,['icsd-50404'],Trigonal,R-3,148.0,-3,10.0,3.0,119.39662912889800,6.456458301074720,-5.948557964,-1.92668164425
mp-1093994,ZnSnS3,,Trigonal,R3c,161.0,3m,10.0,3.0,206.78893400063500,4.501907707628920,-4.218000902,-0.6822678888750000
mp-1427680,ZnWO3,,Orthorhombic,Amm2,38.0,mm2,5.0,3.0,65.05524987683660,7.5872522044252400,-7.269389574,-1.4578015792500000
mp-1340971,ZnWO3,,Orthorhombic,Pnma,62.0,mmm,20.0,3.0,227.89505864557700,8.663471528886410,-7.661755929500000,-1.8501679347500000
mp-972066,ZrAlO3,,Cubic,Pm-3m,221.0,m-3m,5.0,3.0,49.523897122439900,5.572820739004830,-8.373685418000000,-2.9470168992500000
mp-1188011,ZrBeO3,,Cubic,Pm-3m,221.0,m-3m,5.0,3.0,41.75165948717160,5.895549670305640,-8.293399844,-2.8679639182500000
mp-1239170,ZrBeO3,,Cubic,Pm-3m,221.0,m-3m,5.0,3.0,69.74074080076230,3.529486201293940,-7.3250057260000000,-1.8995698002500000
mp-1188026,ZrBO3,,Cubic,Pm-3m,221.0,m-3m,5.0,3.0,40.99870729715770,6.076679151888350,-8.09859658,-2.0851648730833300
mp-1016845,ZrCdO3,,Cubic,Pm-3m,221.0,m-3m,5.0,3.0,71.96388740867710,5.806339458576670,-7.3520743700000000,-2.4899430652500000
mp-1188065,ZrCoH3,['icsd-200548'],Orthorhombic,Cmcm,63.0,mmm,10.0,3.0,79.57346425534100,6.39316289794101,-5.6670875470000000,-0.5002482350000000
mp-756665,ZrCoO3,,Orthorhombic,Pnma,62.0,mmm,20.0,3.0,228.8237243191400,5.75193460615361,-8.8233933775,-2.72417646575
mp-761293,ZrCoO3,,Trigonal,R-3,148.0,-1,20.0,3.0,241.06116989455300,5.459938235577100,-8.8048382725,-2.70562136075
mp-755055,ZrCrO3,,Orthorhombic,Pnma,62.0,mmm,20.0,3.0,249.26258918175700,5.095437039969210,-9.6000272715,-2.991864424750000
mp-677041,ZrCuF3,,Triclinic,P1,1.0,1,20.0,3.0,354.69286361791500,3.9656214100359000,-6.1140878515,-2.4378190110000000
mp-754513,ZrMnO3,,Trigonal,R3c,161.0,3m,10.0,3.0,126.52058400805900,5.09657261750533,-9.569091926,-3.059135514836210
mp-754980,ZrMnO3,,Trigonal,R-3,148.0,-3,10.0,3.0,127.74990701423600,5.047528871660140,-9.56466298,-3.054706568836210
mp-1246219,ZrMoN3,,Triclinic,P-1,2.0,-1,20.0,3.0,297.55737394676400,5.11590953295144,-9.7748100355,-0.8942429324999990
mp-29658,ZrNiH3,"['icsd-658750', 'icsd-638406', 'icsd-43277']",Orthorhombic,Cmcm,63.0,mmm,10.0,3.0,78.83576680471420,6.4428845179515300,-5.438467611,-0.5372645220000000
mp-1188025,ZrNiO3,,Cubic,Pm-3m,221.0,m-3m,5.0,3.0,50.26469396929330,6.538318643506500,-7.6005378640000000,-1.7669571752500000
mp-972296,ZrOsO3,,Cubic,Pm-3m,221.0,m-3m,5.0,3.0,60.52754994516140,9.038334595947890,-8.15535153,-1.232324691250000
mp-647557,ZrPbO3,['icsd-31154'],Orthorhombic,Pba2,32.0,mm2,40.0,3.0,605.8365142698350,7.596076936112940,-8.26661826725,-2.8465355005
mp-542903,ZrPbO3,"['icsd-84560', 'icsd-87587', 'icsd-162049', 'icsd-153712', 'icsd-280469', 'icsd-193183', 'icsd-87896', 'icsd-59399', 'icsd-162380', 'icsd-86443', 'icsd-87586', 'icsd-59402', 'icsd-150699', 'icsd-86153', 'icsd-59400', 'icsd-59405', 'icsd-84559', 'icsd-59403', 'icsd-59406', 'icsd-150698', 'icsd-162381', 'icsd-51574', 'icsd-160460']",Orthorhombic,Pbam,55.0,mmm,40.0,3.0,594.0289866900120,7.747064328868600,-8.271159751,-2.8510769842500000
mp-1100803,ZrPbO3,,Monoclinic,Pm,6.0,m,20.0,3.0,305.71855243585900,7.52649902407487,-8.260584683000000,-2.8405019162500000
mp-1068577,ZrPbO3,"['icsd-290878', 'icsd-290876', 'icsd-262104', 'icsd-290873', 'icsd-290879', 'icsd-290874', 'icsd-290877', 'icsd-262105', 'icsd-290872', 'icsd-290875']",Cubic,Pm-3m,221.0,m-3m,5.0,3.0,74.56174053380130,7.715050540923730,-8.214781556,-2.79469878925
mp-755798,ZrPbO3,,Orthorhombic,Pnma,62.0,mmm,20.0,3.0,291.6364190475540,7.889928130597710,-8.2620602365,-2.8419774697500000
mp-20337,ZrPbO3,['icsd-39607'],Orthorhombic,Amm2,38.0,mm2,5.0,3.0,76.35838009464850,7.533522789829770,-8.264104422000000,-2.8440216552500000
mp-20244,ZrPbS3,"['icsd-2439', 'icsd-648497']",Orthorhombic,Pnma,62.0,mmm,20.0,3.0,490.536716432109,5.343373851309390,-6.3543417390000000,-1.4204022788750000
mp-1183043,ZrSiO3,,Cubic,Pm-3m,221.0,m-3m,5.0,3.0,49.16759723607480,5.650489094658310,-7.983369882,-2.220752923250000
mp-17324,ZrSnS3,['icsd-73711'],Orthorhombic,Pnma,62.0,mmm,20.0,3.0,497.9424921421010,4.08351704818253,-6.391487313000000,-1.3981628958750000
mp-1183045,ZrTiO3,,Cubic,Pm-3m,221.0,m-3m,5.0,3.0,57.47219178112420,5.405552075029350,-8.98683964,-2.730187883916670
mp-1183044,ZrTlO3,,Cubic,Pm-3m,221.0,m-3m,5.0,3.0,74.75924335094660,7.632104481985800,-7.6069044020000000,-2.456822419916670
mp-1246572,ZrWN3,,Triclinic,P-1,2.0,-1,20.0,3.0,272.96074749716700,7.71584251985777,-10.269462434,-0.966399306999999
mp-1016883,ZrZnO3,,Cubic,Pm-3m,221.0,m-3m,5.0,3.0,71.11550484229130,4.7781155825131000,-7.176823658000000,-2.2473215832500000