nsites,nelements,formula_pretty,volume,density,crystal_system,symbol,number,point_group,symprec,version,material_id,energy_per_atom,formation_energy_per_atom,e_total,e_electronic,icsd
20.0,3.0,NaMnF3,249.65099501672162,3.589730569614404,Orthorhombic,Pnma,62.0,mmm,0.1,1.16.2,mp-560242,-6.2131239879999995,-2.9693284903965513,,,"['icsd-65770', 'icsd-67746', 'icsd-67745', 'icsd-15621']"
10.0,3.0,NaMnCl3,231.1528336408107,2.6477326689121825,Trigonal,R-3,148.0,-3,0.1,1.16.2,mp-27176,-4.945018751,-1.738988637896552,8.553374563231811,3.0710509033333344,['icsd-2552']
5.0,3.0,NaFeO3,56.203056881149166,3.747324649399237,Cubic,Pm-3m,221.0,m-3m,0.1,1.16.2,mp-1186134,-6.223837712,-1.2973151845603446,,,
10.0,3.0,NaFeO3,117.72311852213568,3.5780754547836087,Trigonal,R-3,148.0,-3,0.1,1.16.2,mp-754915,-6.314208284,-1.3876857565603444,,,
20.0,3.0,NaFeF3,237.73159828294638,3.795052706073069,Orthorhombic,Pnma,62.0,mmm,0.1,1.16.2,mp-505066,-5.8478864175,-2.7424897363103447,,,['icsd-68981']
10.0,3.0,NaFeF3,115.10438847491389,3.919068409713153,Orthorhombic,Cmcm,63.0,mmm,0.1,1.16.2,mp-1078217,-5.8381939439999995,-2.7327972628103447,,,['icsd-251575']
5.0,3.0,NaCoO3,53.30039279125477,4.047609362092613,Cubic,Pm-3m,221.0,m-3m,0.1,1.16.2,mp-1186126,-5.7231747859999995,-1.0689929415603445,,,
10.0,3.0,NaCoF3,112.06779320672787,4.116776964867067,Orthorhombic,Cmcm,63.0,mmm,0.1,1.16.2,mp-1078336,-5.421881900000001,-2.5888259018103454,,,"['icsd-239318', 'icsd-192148', 'icsd-192150']"
20.0,3.0,NaCoF3,230.60167405430886,4.001342240631689,Orthorhombic,Pnma,62.0,mmm,0.1,1.16.2,mp-21404,-5.440153471,-2.607097472810345,,,"['icsd-192146', 'icsd-4404', 'icsd-192149', 'icsd-192147', 'icsd-72321']"
5.0,3.0,NaNiO3,55.793589759155374,3.8596007324351276,Cubic,Pm-3m,221.0,m-3m,0.1,1.16.2,mp-1186154,-5.138825782,-0.7502801605603444,,,
20.0,3.0,NaNiF3,222.59031671509968,4.138200964379597,Orthorhombic,Pnma,62.0,mmm,0.1,1.16.2,mp-561480,-5.1659703025,-2.598550527310345,7.178885753332715,2.246478913333513,"['icsd-192142', 'icsd-25533', 'icsd-192140', 'icsd-9008', 'icsd-192144', 'icsd-72319', 'icsd-200062']"
10.0,3.0,NaNiF3,108.50646654527405,4.2445556132253595,Orthorhombic,Cmcm,63.0,mmm,0.1,1.16.2,mp-1078237,-5.15297153,-2.585551754810345,,,"['icsd-192145', 'icsd-192143', 'icsd-192141', 'icsd-423598', 'icsd-239317', 'icsd-239319', 'icsd-239320']"
20.0,3.0,NaCuF3,229.34924058901922,4.15678372573588,Monoclinic,P2_1/c,14.0,2/m,0.1,1.16.2,mp-505085,-4.5331225835,-2.3018888103103445,,,
40.0,3.0,NaZnO3,586.523426543158,3.0892883155945228,Tetragonal,P4_2/mbc,135.0,4/mmm,0.1,1.16.2,mp-1180211,-4.404077636249999,-0.9196106288103444,,,['icsd-34379']
5.0,3.0,NaZnO3,59.646539963363715,3.79724450394603,Cubic,Pm-3m,221.0,m-3m,0.1,1.16.2,mp-1186198,-4.3380061240000005,-0.853539116560345,,,
20.0,3.0,NaZnF3,230.075798391036,4.197440733306816,Orthorhombic,Pnma,62.0,mmm,0.1,1.16.2,mp-3795,-4.43257325,-2.769232088810345,11.088734673333335,2.27984296,"['icsd-69349', 'icsd-72320']"
5.0,3.0,NaGeO3,53.35964417444054,4.4696672501445756,Cubic,Pm-3m,221.0,m-3m,0.1,1.16.2,mp-1186133,-5.856373396,-1.6992495395603449,,,
30.0,3.0,NaAsO3,419.5407583073476,3.4650536594977006,Triclinic,P-1,2.0,-1,0.1,1.16.2,mp-17868,-6.0560509336666675,-1.8917089672270122,,,['icsd-16654']
5.0,3.0,NaAsO3,51.44697090838285,4.709481155104125,Cubic,Pm-3m,221.0,m-3m,0.1,1.16.2,mp-976133,-5.751620022,-1.5872780555603447,,,
5.0,3.0,RbNaO3,92.81920017629031,2.7989997391806822,Cubic,Pm-3m,221.0,m-3m,0.1,1.16.2,mp-975274,-3.9353986720000003,-0.5067735720603451,,,
5.0,3.0,NaSrO3,74.52969847814956,3.5338225518348003,Cubic,Pm-3m,221.0,m-3m,0.1,1.16.2,mp-977112,-4.87871639,-1.3082994138936783,,,
20.0,3.0,NaNbO3,241.49733830344042,4.507759326646763,Orthorhombic,Pmc2_1,26.0,mm2,0.1,1.16.2,mp-4681,-8.086211604999999,-2.833432311560345,105.03436657333333,5.416820656666668,"['icsd-39624', 'icsd-247318', 'icsd-74642', 'icsd-247311', 'icsd-173756']"
20.0,3.0,NaNbO3,246.90213602096873,4.409082467416359,Orthorhombic,Pnma,62.0,mmm,0.1,1.16.2,mp-1105765,-8.07698637,-2.824207076560345,,,"['icsd-192401', 'icsd-247314', 'icsd-247313', 'icsd-192402', 'icsd-192400', 'icsd-192403', 'icsd-247315']"
80.0,3.0,NaNbO3,1002.3876037534603,4.344075585218226,Orthorhombic,Pmmn,59.0,mmm,0.1,1.16.2,mp-1199593,-8.069500855125,-2.8167215616853447,,,['icsd-262896']
20.0,3.0,NaNbO3,252.06532184664687,4.318768925143931,Orthorhombic,Pnma,62.0,mmm,0.1,1.16.2,mp-1189194,-8.072661721500001,-2.819882428060345,,,"['icsd-192400', 'icsd-247315', 'icsd-192403', 'icsd-192402', 'icsd-192401', 'icsd-247314', 'icsd-247313']"
20.0,3.0,NaNbO3,240.3429142597092,4.529411164255803,Orthorhombic,Pna2_1,33.0,mm2,0.1,1.16.2,mp-1188528,-8.082899089,-2.830119795560345,,,['icsd-247316']
120.0,3.0,NaNbO3,1520.8843988781503,4.29465334735774,Orthorhombic,Pnma,62.0,mmm,0.1,1.16.2,mp-1194823,-8.077170566000001,-2.824391272560346,,,['icsd-252486']
10.0,3.0,NaNbO3,126.03267710912635,4.318768370504101,Orthorhombic,Imma,74.0,mmm,0.1,1.16.2,mp-1977728,-8.072796319,-2.8200170255603445,,,
20.0,3.0,NaNbO3,260.55339819617905,4.178075920844645,Orthorhombic,Cmcm,63.0,mmm,0.1,1.16.2,mp-559354,-8.0630368065,-2.810257513060345,,,
10.0,3.0,NaNbO3,124.81392265583447,4.3609392924035895,Tetragonal,P4/mbm,127.0,4/mmm,0.1,1.16.2,mp-4419,-8.071345507,-2.818566213560344,19.379293266666664,7.0750141733333365,"['icsd-236892', 'icsd-23563', 'icsd-280100', 'icsd-192406']"
10.0,3.0,NaNbO3,129.43938864437823,4.205102830362381,Trigonal,R-3,148.0,-3,0.1,1.16.2,mp-1078295,-8.099062602,-2.846283308560344,15.421460700000003,4.042136226666668,"['icsd-5308', 'icsd-193715']"
40.0,3.0,NaNbO3,519.1161887785881,4.194097208407475,Orthorhombic,P222_1,17.0,222,0.1,1.16.2,mp-1199037,-8.05972384525,-2.806944551810344,,,
40.0,3.0,NaNbO3,481.97067079689253,4.517336614270683,Orthorhombic,Pbcm,57.0,mmm,0.1,1.16.2,mp-3671,-8.084622605,-2.8318433115603447,,,"['icsd-247312', 'icsd-89317', 'icsd-23239', 'icsd-97669', 'icsd-247310', 'icsd-250257', 'icsd-190165', 'icsd-252480']"
120.0,3.0,NaNbO3,1499.283297862638,4.356529072189154,Orthorhombic,Pmmn,59.0,mmm,0.1,1.16.2,mp-1198142,-8.073842631500002,-2.821063338060346,,,['icsd-262894']
60.0,3.0,NaNbO3,755.5617916483899,4.322393844410946,Orthorhombic,Pnma,62.0,mmm,0.1,1.16.2,mp-1195803,-8.076850097333333,-2.8240708038936786,,,['icsd-252487']
120.0,3.0,NaNbO3,1497.3537389130663,4.362143096078,Orthorhombic,Pnma,62.0,mmm,0.1,1.16.2,mp-1203293,-8.0776337635,-2.8248544700603455,,,['icsd-262895']
20.0,3.0,NaNbO3,247.43532826035178,4.399581445185803,Orthorhombic,Cmcm,63.0,mmm,0.1,1.16.2,mp-4748,-8.075503793,-2.822724499560345,,,"['icsd-192405', 'icsd-192404', 'icsd-280098', 'icsd-23323']"
5.0,3.0,NaNbO3,64.44912652017267,4.222756528581366,Cubic,Pm-3m,221.0,m-3m,0.1,1.16.2,mp-3136,-8.057865508,-2.8050862145603452,,,"['icsd-28577', 'icsd-28579', 'icsd-28587', 'icsd-28565', 'icsd-28573', 'icsd-28580', 'icsd-28568', 'icsd-28584', 'icsd-28576', 'icsd-252485', 'icsd-31867', 'icsd-28578', 'icsd-28571', 'icsd-28566', 'icsd-28586', 'icsd-28583', 'icsd-28575', 'icsd-236890', 'icsd-28570', 'icsd-28572', 'icsd-28589', 'icsd-192407', 'icsd-28588', 'icsd-28569', 'icsd-28567', 'icsd-28564', 'icsd-28590', 'icsd-28585', 'icsd-22064', 'icsd-28581', 'icsd-28574', 'icsd-28582', 'icsd-192408', 'icsd-22065']"
20.0,3.0,NaNbO3,240.47507264074594,4.526921926431923,Orthorhombic,Pmn2_1,31.0,mm2,0.1,1.16.2,mp-1190015,-8.0824539605,-2.8296746670603445,,,['icsd-247317']
10.0,3.0,NaNbO3,121.69003756668432,4.472888253079711,Trigonal,R3c,161.0,3m,0.1,1.16.2,mp-4514,-8.088202963,-2.8354236695603454,38.55595030996923,5.30246231,"['icsd-252479', 'icsd-28152', 'icsd-9645']"
40.0,3.0,NaNbO3,482.5297952992486,4.5121022150459416,Orthorhombic,Pca2_1,29.0,mm2,0.1,1.16.2,mp-558920,-8.08460012275,-2.8318208293103444,,,['icsd-38314']
5.0,3.0,NaMoO3,61.57755902520197,4.501484285601487,Cubic,Pm-3m,221.0,m-3m,0.1,1.16.2,mp-1040471,-7.421171805999999,-2.019523498560345,,,
10.0,3.0,NaMoO3,119.81613445964919,4.626929679341222,Trigonal,R3c,161.0,3m,0.1,1.16.2,mp-998627,-7.429267822999999,-2.0276195155603447,,,
5.0,3.0,NaTcO3,55.54069588597196,5.052351618909321,Cubic,Pm-3m,221.0,m-3m,0.1,1.16.2,mp-977176,-7.281313588000001,-1.9766675135603449,,,
5.0,3.0,NaRuO3,57.84641929357169,4.939095335518074,Cubic,Pm-3m,221.0,m-3m,0.1,1.16.2,mp-977107,-6.610622938000001,-1.523224144560345,,,
5.0,3.0,NaPdO3,63.576091389022885,4.63370517562955,Cubic,Pm-3m,221.0,m-3m,0.1,1.16.2,mp-976968,-5.041261758,-0.7727671105603449,,,
20.0,3.0,NaPdF3,298.40801668740676,4.14912110036554,Triclinic,P-1,2.0,-1,0.1,1.16.2,mp-1377793,-3.170957309,-0.7235885078103447,,,
20.0,3.0,NaPdF3,276.9313102646518,4.470895679411334,Triclinic,P-1,2.0,-1,0.1,1.16.2,mp-1220961,-4.542102643,-2.0947338418103447,,,
5.0,3.0,NaAgO3,69.5491383976443,4.270328335252566,Cubic,Pm-3m,221.0,m-3m,0.1,1.16.2,mp-1186101,-4.212660156,-0.4136306698936778,,,
5.0,3.0,NaCdO3,77.1257750075502,3.948630055695392,Cubic,Pm-3m,221.0,m-3m,0.1,1.16.2,mp-976293,-4.037286258,-0.6201900205603451,,,
10.0,3.0,NaCdF3,214.39904706011885,2.9802468207557276,Monoclinic,Cc,9.0,m,0.1,1.16.2,mp-1180887,-4.180694893,-2.584724501810345,,,
10.0,3.0,NaCdF3,141.76141001603943,4.507306172403917,Trigonal,R3c,161.0,3m,0.1,1.16.2,mp-4360,-4.269607991999999,-2.6736376008103444,6.356607703329165,2.2820407299999994,"['icsd-163867', 'icsd-163866']"
5.0,3.0,NaInO3,76.16468912288676,4.050933238880728,Cubic,Pm-3m,221.0,m-3m,0.1,1.16.2,mp-1186138,-4.962980384,-1.180125352560345,,,
20.0,3.0,NaSbO3,236.38441497374964,5.416017515922947,Orthorhombic,Pnma,62.0,mmm,0.1,1.16.2,mp-22212,-6.027857919000001,-1.969539385560345,,,['icsd-98978']
30.0,3.0,NaSbO3,426.44615616793357,4.503248933558902,Triclinic,P-1,2.0,-1,0.1,1.16.2,mp-760994,-6.054098247333333,-1.9957797138936784,,,
10.0,3.0,NaSbO3,128.83098377675014,4.968766419604385,Trigonal,R-3,148.0,-3,0.1,1.16.2,mp-4482,-6.119753534,-2.061435000560345,8.057723790001605,3.3011383299999992,"['icsd-78011', 'icsd-5312', 'icsd-78416']"
20.0,3.0,NaSbO3,280.07343441656303,4.571165896744238,Cubic,Fd-3m,227.0,m-3m,0.1,1.16.2,mp-20011,-6.064616287,-2.0062977535603443,,,['icsd-25540']
20.0,3.0,NaSbO3,256.8243142904015,4.984972452964025,Orthorhombic,Pnna,52.0,mmm,0.1,1.16.2,mp-752755,-6.0681694565,-2.0098509230603447,,,
5.0,3.0,CsNaO3,88.02284214895064,3.846421940332156,Cubic,Pm-3m,221.0,m-3m,0.1,1.16.2,mp-1183929,-3.68425351,-0.2726547501465518,,,
20.0,3.0,CsNaF3,395.24948128261053,3.57761762083351,Orthorhombic,Pnma,62.0,mmm,0.1,1.16.2,mp-998609,-4.001478365,-2.4110054513965515,27.799087150000002,20.80873820333333,
5.0,3.0,NaYbO3,86.77714887933976,4.669639203011203,Cubic,Pm-3m,221.0,m-3m,0.1,1.16.2,mp-1186199,-5.0203019079999995,-1.4798619665603447,,,
10.0,3.0,NaTaO3,118.77001155706728,7.044696123574571,Tetragonal,P4/mbm,127.0,4/mmm,0.1,1.16.2,mp-4675,-8.668880122000001,-3.0648063105603454,12.978332970000002,5.568345933333337,"['icsd-23322', 'icsd-280101', 'icsd-88377', 'icsd-239692']"
40.0,3.0,NaTaO3,581.7432250726712,5.753044325757012,Triclinic,P1,1.0,1,0.1,1.16.2,mp-730333,-5.485820724,0.11825308743965479,,,
5.0,3.0,NaTaO3,61.52965494459861,6.7991494570085225,Cubic,Pm-3m,221.0,m-3m,0.1,1.16.2,mp-4170,-8.658897724000001,-3.054823912560346,52.42771412691542,5.206058363052932,"['icsd-28609', 'icsd-28619', 'icsd-28612', 'icsd-28611', 'icsd-28608', 'icsd-28607', 'icsd-28615', 'icsd-28606', 'icsd-28610', 'icsd-28618', 'icsd-28613', 'icsd-28616', 'icsd-28617', 'icsd-88378', 'icsd-239693', 'icsd-28614']"
20.0,3.0,NaTaO3,234.06103598567563,7.149405594053545,Orthorhombic,Pnma,62.0,mmm,0.1,1.16.2,mp-3858,-8.6734985635,-3.0694247520603453,346.6199229633333,5.290592343333333,"['icsd-980', 'icsd-173757', 'icsd-150430', 'icsd-88375', 'icsd-239690', 'icsd-23319']"
20.0,3.0,NaTaO3,289.20701886028814,5.786157219214491,Cubic,Fd-3m,227.0,m-3m,0.1,1.16.2,mp-754818,-8.586740757,-2.982666945560345,,,
40.0,3.0,NaTaO3,583.5490824437464,5.735240891882549,Triclinic,P1,1.0,1,0.1,1.16.2,mp-676280,-8.5778496355,-2.9737758240603456,,,
20.0,3.0,NaTaO3,235.85405428360804,7.095054121960283,Orthorhombic,Cmcm,63.0,mmm,0.1,1.16.2,mp-4699,-8.672111269,-3.068037457560345,,,"['icsd-88376', 'icsd-280099', 'icsd-23321', 'icsd-239691', 'icsd-23320']"
5.0,3.0,NaWO3,62.5512945491811,6.764876751177076,Cubic,Pm-3m,221.0,m-3m,0.1,1.16.2,mp-19328,-7.93570917,-2.111564838560345,,,"['icsd-28343', 'icsd-28866', 'icsd-29141']"
5.0,3.0,NaReO3,58.755619851879835,7.2687905480204495,Cubic,Pm-3m,221.0,m-3m,0.1,1.16.2,mp-976923,-7.7992969180000005,-2.0778731955603447,,,
5.0,3.0,NaOsO3,58.26098792489951,7.445164566150063,Cubic,Pm-3m,221.0,m-3m,0.1,1.16.2,mp-1040464,-7.098090474,-1.6200987025603453,,,
20.0,3.0,NaOsO3,216.53587253887596,8.012762740907654,Orthorhombic,Pnma,62.0,mmm,0.1,1.16.2,mp-1105218,-7.1331451105,-1.6551533390603452,,,['icsd-252431']
10.0,3.0,NaOsO3,109.94323616993226,7.890665365114763,Trigonal,R-3c,167.0,-3m,0.1,1.16.2,mp-998624,-7.117722989000001,-1.639731217560346,,,
10.0,3.0,NaIrO3,111.77425064239513,7.82044400209861,Orthorhombic,Cmcm,63.0,mmm,0.1,1.16.2,mp-1079568,-6.476679781,-1.4764746595603448,,,['icsd-261371']
5.0,3.0,NaPbO3,79.72380712196995,5.794279118417319,Cubic,Pm-3m,221.0,m-3m,0.1,1.16.2,mp-1186153,-5.068154572,-1.0931068725603452,,,
10.0,3.0,NaBiO3,143.40569727537377,6.483681240488199,Trigonal,R-3,148.0,-3,0.1,1.16.2,mp-23054,-5.595388328,-1.594772216560345,10.524506540001896,4.50857318,"['icsd-5313', 'icsd-27553', 'icsd-91776']"
5.0,3.0,NaPaO3,81.04148454461952,6.188465124898148,Cubic,Pm-3m,221.0,m-3m,0.1,1.16.2,mp-865120,-8.586671646000001,-3.451220428560346,,,
20.0,3.0,NaUO3,280.2986898886754,7.322682820773149,Orthorhombic,Pnma,62.0,mmm,0.1,1.16.2,mp-5788,-8.7827652565,-3.291964969060344,,,"['icsd-161784', 'icsd-202889', 'icsd-15136', 'icsd-194121', 'icsd-99549', 'icsd-108856']"
5.0,3.0,NaPuO3,74.43174874793523,7.027240892455187,Cubic,Pm-3m,221.0,m-3m,0.1,1.16.2,mp-976952,-9.013162423999999,-2.927076472560344,,,
5.0,3.0,MgAlO3,49.60497747034924,3.3235815349581737,Cubic,Pm-3m,221.0,m-3m,0.1,1.16.2,mp-1185841,-6.581299996,-2.5441155932499995,,,
80.0,3.0,MgSiO3,897.2779016846998,2.9725347365795702,Orthorhombic,Pbca,61.0,mmm,0.1,1.16.2,mp-642228,-7.405008980124999,-3.0318761373749994,,,"['icsd-24464', 'icsd-159557', 'icsd-159559', 'icsd-77344', 'icsd-81130']"
80.0,3.0,MgSiO3,851.1953505444209,3.133463698335612,Orthorhombic,Pca2_1,29.0,mm2,0.1,1.16.2,mp-1020118,-7.592485359875001,-3.2193525171250004,,,['icsd-5227']
10.0,3.0,MgSiO3,90.81105492543924,3.6713450434433685,Trigonal,R-3,148.0,-3,0.1,1.16.2,mp-5924,-7.493899267000001,-3.12076642425,,,"['icsd-171783', 'icsd-75738', 'icsd-31176', 'icsd-171785', 'icsd-89805', 'icsd-171782', 'icsd-171784']"
40.0,3.0,MgSiO3,419.76052030751345,3.1770373845175284,Orthorhombic,Pna2_1,33.0,mm2,0.1,1.16.2,mp-557803,-7.5983325100000005,-3.22519966725,,,"['icsd-163893', 'icsd-5216']"
40.0,3.0,MgSiO3,407.75547752521015,3.270574986890391,Orthorhombic,Pna2_1,33.0,mm2,0.1,1.16.2,mp-642209,-7.161808967000001,-2.78867612425,,,"['icsd-159568', 'icsd-159566']"
40.0,3.0,MgSiO3,428.8623999297255,3.1096101355120562,Orthorhombic,Pbcn,60.0,mmm,0.1,1.16.2,mp-5026,-7.6026389632499995,-3.2295061204999995,,,"['icsd-30808', 'icsd-81132', 'icsd-26489', 'icsd-159565', 'icsd-30807', 'icsd-36262', 'icsd-31288', 'icsd-163891', 'icsd-159564', 'icsd-5300', 'icsd-159563', 'icsd-159562', 'icsd-81133']"
80.0,3.0,MgSiO3,895.4855821140897,2.978484282043063,Orthorhombic,Pbca,61.0,mmm,0.1,1.16.2,mp-556940,-7.5017461325,-3.1286132897499996,,,"['icsd-290218', 'icsd-290216', 'icsd-17053', 'icsd-159558', 'icsd-290223', 'icsd-81129', 'icsd-64629', 'icsd-159561', 'icsd-290222', 'icsd-290217', 'icsd-30523', 'icsd-159559', 'icsd-290220', 'icsd-290224', 'icsd-200117', 'icsd-34074', 'icsd-81128', 'icsd-159560', 'icsd-290215', 'icsd-159556', 'icsd-290221', 'icsd-9328', 'icsd-201536', 'icsd-290219', 'icsd-81130', 'icsd-37313']"
40.0,3.0,MgSiO3,415.78466050652224,3.2074171854653586,Orthorhombic,Pna2_1,33.0,mm2,0.1,1.16.2,mp-657336,-7.321491688499999,-2.948358845749999,,,"['icsd-159568', 'icsd-159566']"
80.0,3.0,MgSiO3,880.8185370473699,3.0280808349740247,Monoclinic,Pc,7.0,m,0.1,1.16.2,mp-1020115,-7.598188193,-3.22505535025,,,['icsd-5221']
40.0,3.0,MgSiO3,540.679245915951,2.4665175806818516,Orthorhombic,Pna2_1,33.0,mm2,0.1,1.16.2,mp-642210,-7.464681957000001,-3.0915491142500002,5.220478423333334,2.498408486666667,"['icsd-159568', 'icsd-159567']"
160.0,3.0,MgSiO3,1558.076480618438,3.423695517262833,Monoclinic,C2,5.0,2,0.1,1.16.2,mp-530986,-7.50777940525,-3.1346465624999995,,,
40.0,3.0,MgSiO3,446.77388918539316,2.9849436098270083,Orthorhombic,Pna2_1,33.0,mm2,0.1,1.16.2,mp-1199778,-7.599094954250001,-3.2259621115000003,,,
80.0,3.0,MgSiO3,887.8358053691328,3.004147518035803,Monoclinic,P2/c,13.0,2/m,0.1,1.16.2,mp-1020361,-7.600457427249999,-3.227324584499999,,,
10.0,3.0,MgSiO3,84.1979956765026,3.9596989656538515,Orthorhombic,Cmcm,63.0,mmm,0.1,1.16.2,mp-4391,-7.349852831,-2.9767199882499993,,,"['icsd-158959', 'icsd-172737', 'icsd-172736', 'icsd-172738']"
40.0,3.0,MgSiO3,441.3797870132442,3.0214226042967463,Monoclinic,P2_1/c,14.0,2/m,0.1,1.16.2,mp-554137,-7.50243952175,-3.129306679,,,"['icsd-196432', 'icsd-30895', 'icsd-34163', 'icsd-180445', 'icsd-201535', 'icsd-30893', 'icsd-24270', 'icsd-159553', 'icsd-159551', 'icsd-92750', 'icsd-159552']"
20.0,3.0,MgSiO3,217.49262407096256,3.065839292845121,Monoclinic,C2/c,15.0,2/m,0.1,1.16.2,mp-1180703,-7.208485609999999,-2.8353527672499994,,,
80.0,3.0,MgSiO3,889.7182633334282,2.9977913695174427,Orthorhombic,Pca2_1,29.0,mm2,0.1,1.16.2,mp-1020125,-7.59980997875,-3.2266771359999993,,,['icsd-5222']
80.0,3.0,MgSiO3,782.1641212147097,3.4100128844836592,Tetragonal,I4_1/a,88.0,4/m,0.1,1.16.2,mp-772412,-7.522253549625001,-3.1491207068750002,,,
20.0,3.0,MgSiO3,215.1168579397949,3.099698643643109,Monoclinic,C2/c,15.0,2/m,0.1,1.16.2,mp-603930,-7.601560761,-3.22842791825,,,"['icsd-159514', 'icsd-159516', 'icsd-159515', 'icsd-159518', 'icsd-158573', 'icsd-159513', 'icsd-159517', 'icsd-189830']"
40.0,3.0,MgSiO3,422.7228741338784,3.1547733684719965,Orthorhombic,Pbcn,60.0,mmm,0.1,1.16.2,mp-644879,-7.560144982500001,-3.18701213975,,,['icsd-163892']
20.0,3.0,MgSiO3,321.5577847395927,2.0736473020572106,Monoclinic,C2/c,15.0,2/m,0.1,1.16.2,mp-1180468,-5.944687071500001,-1.57155422875,,,
80.0,3.0,MgSiO3,882.0648952475137,3.0238021550268885,Orthorhombic,Pbca,61.0,mmm,0.1,1.16.2,mp-657338,-7.477800413375,-3.1046675706249998,,,"['icsd-77344', 'icsd-81130', 'icsd-159559', 'icsd-159557', 'icsd-24464']"
80.0,3.0,MgSiO3,891.1783782826484,2.9928797602370305,Monoclinic,Pc,7.0,m,0.1,1.16.2,mp-1020117,-7.59981809975,-3.2266852569999998,,,['icsd-5220']
80.0,3.0,MgSiO3,865.7559289834046,3.0807640373365843,Orthorhombic,Pbca,61.0,mmm,0.1,1.16.2,mp-5834,-7.60310551825,-3.2299726754999996,,,"['icsd-159559', 'icsd-159558', 'icsd-290215', 'icsd-81130', 'icsd-290221', 'icsd-159557', 'icsd-290222', 'icsd-159561', 'icsd-290217', 'icsd-290216', 'icsd-290224', 'icsd-290219', 'icsd-30523', 'icsd-290220', 'icsd-9328', 'icsd-290223', 'icsd-159560', 'icsd-37313', 'icsd-159556', 'icsd-34074', 'icsd-77344', 'icsd-24464', 'icsd-81128', 'icsd-64629', 'icsd-201536', 'icsd-200117', 'icsd-81129', 'icsd-290218', 'icsd-17053']"
40.0,3.0,MgSiO3,391.20602870805635,3.4089322957666264,Monoclinic,P2_1/c,14.0,2/m,0.1,1.16.2,mp-642216,-7.485255032,-3.1121221892500004,,,"['icsd-5218', 'icsd-159550']"
20.0,3.0,MgSiO3,167.93161695400687,3.970648558474681,Orthorhombic,Pnma,62.0,mmm,0.1,1.16.2,mp-3547,-7.393931073999999,-3.0207982312499992,,,"['icsd-68374', 'icsd-156592', 'icsd-66890', 'icsd-171911', 'icsd-202246', 'icsd-68375', 'icsd-40662', 'icsd-151950', 'icsd-40663', 'icsd-41659', 'icsd-66889', 'icsd-5203', 'icsd-68370', 'icsd-66887', 'icsd-156589', 'icsd-66891', 'icsd-90065', 'icsd-68371', 'icsd-156590', 'icsd-36405', 'icsd-156591', 'icsd-66888', 'icsd-75739', 'icsd-68369', 'icsd-74536']"
40.0,3.0,MgSiO3,422.5278109317631,3.156229793775328,Orthorhombic,Pnma,62.0,mmm,0.1,1.16.2,mp-1256030,-7.169120509,-2.7959876662499994,,,