material_id,formula_pretty,icsd,crystal_system,symbol,number,point_group,nsites,nelements,volume,density,energy_per_atom,formation_energy_per_atom
mp-19051,LaCoO3,"['icsd-201762', 'icsd-201763', 'icsd-167257', 'icsd-201766', 'icsd-236314', 'icsd-201764', 'icsd-190095', 'icsd-156452', 'icsd-201767', 'icsd-189375', 'icsd-99369', 'icsd-164900', 'icsd-180176']",Trigonal,R-3c,167.0,2/m,20.0,3.0,222.25359956685800,7.346953554651770,-7.979271121000000,-2.6023929142500000
mp-573180,LaCoO3,['icsd-28921'],Cubic,Pm-3m,221.0,m-3m,5.0,3.0,55.60374124701540,7.341623228722620,-7.9060387600000000,-2.52916055325
mp-1504268,LaCoO3,,Orthorhombic,Imma,74.0,mmm,10.0,3.0,119.41139253008200,6.837232356035580,-7.927442260000000,-2.5505640532500000
mp-989612,LaCrN3,,Monoclinic,C2/c,15.0,2/m,20.0,3.0,297.1601504486530,5.206290707670720,-8.9711458845,-1.051438014500000
mp-18841,LaCrO3,"['icsd-91271', 'icsd-28930', 'icsd-41061', 'icsd-59595', 'icsd-29120']",Cubic,Pm-3m,221.0,m-3m,5.0,3.0,60.56654511365900,6.549860163598630,-8.991754038,-3.105929896250000
mp-19281,LaCrO3,"['icsd-9938', 'icsd-108900', 'icsd-194033', 'icsd-160073', 'icsd-151219', 'icsd-81984', 'icsd-160078', 'icsd-180183', 'icsd-79344', 'icsd-89098', 'icsd-160076', 'icsd-173469', 'icsd-166837', 'icsd-100185', 'icsd-167588', 'icsd-160077', 'icsd-251092', 'icsd-251091', 'icsd-91270', 'icsd-50755', 'icsd-180184', 'icsd-51191', 'icsd-165054', 'icsd-153615', 'icsd-180177', 'icsd-237354']",Orthorhombic,Pnma,62.0,mmm,20.0,3.0,236.61766314523800,6.706217884389390,-9.0832108625,-3.197386720750000
mp-19357,LaCrO3,['icsd-167590'],Trigonal,R-3c,167.0,-3m,10.0,3.0,117.86084206710200,6.731708243877960,-9.075784438000000,-3.189960296250000
mp-10328,LaCrS3,['icsd-51123'],Orthorhombic,Pnma,62.0,mmm,20.0,3.0,397.49337889168100,4.797413951408480,-7.160736413,-1.7610555778750000
mp-1105933,LaCrSe3,"['icsd-626231', 'icsd-626229']",Orthorhombic,Pnma,62.0,mmm,20.0,3.0,455.701294024344,6.2352073015490300,-6.588914989,-1.5735571874062500
mp-3474,LaCuO3,"['icsd-73554', 'icsd-9428']",Trigonal,R-3c,167.0,-3m,10.0,3.0,114.50128810538700,7.264223278768730,-7.199675158,-2.42461917625
mp-1076070,LaCuO3,,Cubic,Pm-3m,221.0,m-3m,5.0,3.0,58.03562468331230,7.165968549859710,-7.175454064,-2.4003980822500000
mp-756272,LaDyO3,,Orthorhombic,Pna2_1,33.0,mm2,20.0,3.0,312.28393326480100,7.4316784470168100,-8.779369334,-3.9027973182500000
mp-7538,LaErO3,['icsd-16237'],Orthorhombic,Pnma,62.0,mmm,20.0,3.0,304.0796627333530,7.736143143279780,-8.808138028,-3.9393796182500000
mp-558977,LaErS3,['icsd-173035'],Orthorhombic,Pnma,62.0,mmm,60.0,3.0,1405.4097717016100,5.704815482612090,-6.831274340333330,-2.448659237208330
mp-1200571,LaErS3,['icsd-630728'],Monoclinic,P2_1/m,11.0,2/m,40.0,3.0,939.2266311609580,5.690925675100200,-6.82799950725,-2.445384404125
mp-1078634,LaFeO3,"['icsd-236173', 'icsd-236175', 'icsd-236169', 'icsd-236177', 'icsd-236174', 'icsd-236176', 'icsd-236171', 'icsd-236179', 'icsd-236172', 'icsd-236170', 'icsd-236178']",Trigonal,R-3c,167.0,-3m,10.0,3.0,115.45061726760400,6.982962229917880,-8.50290807,-2.8536891802500000
mp-22590,LaFeO3,"['icsd-164083', 'icsd-184304', 'icsd-28255', 'icsd-158825', 'icsd-236168', 'icsd-236164', 'icsd-236154', 'icsd-236155', 'icsd-236165', 'icsd-194609', 'icsd-236159', 'icsd-236167', 'icsd-236162', 'icsd-195543', 'icsd-236157', 'icsd-236158', 'icsd-236161', 'icsd-236156', 'icsd-236160', 'icsd-160736', 'icsd-236163', 'icsd-153536', 'icsd-236153', 'icsd-166178', 'icsd-236166', 'icsd-180178', 'icsd-93611', 'icsd-84941', 'icsd-78062']",Orthorhombic,Pnma,62.0,mmm,20.0,3.0,251.93610168856500,6.399934700878750,-8.475136048,-2.8259171582500000
mp-552676,LaFeO3,"['icsd-29118', 'icsd-29234']",Cubic,Pm-3m,221.0,m-3m,5.0,3.0,61.96642318273110,6.50503335833213,-8.372899576,-2.7236806862500000
mp-1181002,LaFeO3,,Orthorhombic,Pnma,62.0,mmm,20.0,3.0,302.64898868723100,5.327540021179630,-8.3961604495,-2.74694155975
mp-605340,LaFeO3,,Orthorhombic,Pmn2_1,31.0,mm2,20.0,3.0,333.39107148475900,4.836286084147500,-8.2110151845,-2.5617962947500000
mp-556983,LaGaO3,,Orthorhombic,Imma,74.0,mmm,10.0,3.0,121.6841724938780,7.0040105024818400,-7.654491902000000,-3.0936580497500000
mp-3336,LaGaO3,"['icsd-88351', 'icsd-88350', 'icsd-160270', 'icsd-160266', 'icsd-160267', 'icsd-153308', 'icsd-160265', 'icsd-51287', 'icsd-83349', 'icsd-160268', 'icsd-182542', 'icsd-153310', 'icsd-182541', 'icsd-182540', 'icsd-182543', 'icsd-160269', 'icsd-153309', 'icsd-51286']",Trigonal,R-3c,167.0,-3m,10.0,3.0,121.62970279595100,7.007147123944990,-7.654005623000000,-3.0931717707500000
mp-5837,LaGaO3,"['icsd-153307', 'icsd-88259', 'icsd-160235', 'icsd-98168', 'icsd-88146', 'icsd-50388', 'icsd-94299', 'icsd-160233', 'icsd-73761', 'icsd-160234', 'icsd-51285', 'icsd-73759', 'icsd-91786', 'icsd-41280', 'icsd-88349', 'icsd-73760', 'icsd-98410', 'icsd-161782']",Orthorhombic,Pnma,62.0,mmm,20.0,3.0,244.776697806021,6.9637120671375300,-7.659527258,-3.09869340575
mp-1180739,LaGaO3,,Orthorhombic,Pnma,62.0,mmm,20.0,3.0,243.58010127039400,6.997921568205890,-7.6545308995,-3.09369704725
mp-1078871,LaGaO3,"['icsd-51037', 'icsd-73764', 'icsd-51038', 'icsd-73762', 'icsd-73763', 'icsd-51036', 'icsd-51039']",Trigonal,R3c,161.0,3m,10.0,3.0,121.69108631106900,7.003612573186550,-7.6534813030000000,-3.0926474507500000
mp-9831,LaGaO3,['icsd-76047'],Cubic,Pm-3m,221.0,m-3m,5.0,3.0,97.33009647935540,4.378282016363300,-6.24826148,-1.6874276277500000
mp-1097026,LaGaO3,['icsd-79662'],Cubic,Pm-3m,221.0,m-3m,5.0,3.0,59.93511816444750,7.10999868052724,-7.5957525940000000,-3.03491874175
mp-4816,LaGaS3,['icsd-27192'],Monoclinic,P2_1/c,14.0,2/m,60.0,3.0,1399.3919751039700,4.34049606706342,-5.824371832666670,-1.7496812870416700
mp-1201646,LaGaS3,['icsd-420964'],Orthorhombic,Pna2_1,33.0,mm2,60.0,3.0,1399.9496136472700,4.338767127764140,-5.819636046166670,-1.7449455005416700
mp-770413,LaHoO3,,Monoclinic,P2_1/c,14.0,2/m,20.0,3.0,312.48257074063900,7.4786134019316900,-8.746057896,-3.8743614742500000
mp-756166,LaHoO3,"['icsd-196470', 'icsd-189420', 'icsd-196469', 'icsd-189422']",Orthorhombic,Pnma,62.0,mmm,20.0,3.0,306.5519644743990,7.623295924453870,-8.792727639,-3.9210312172500000
mp-1200097,LaHoS3,['icsd-639367'],Monoclinic,P2_1/m,11.0,2/m,40.0,3.0,946.3289521611860,5.615525156412780,-6.8313278955,-2.4457747803750000
mp-11623,LaInO3,"['icsd-193481', 'icsd-281549']",Orthorhombic,Pnma,62.0,mmm,20.0,3.0,281.8940253530810,7.1093471335158500,-7.4361044740000000,-2.93055308025
mp-1080184,LaIO3,['icsd-416012'],Monoclinic,C2/m,12,2/m,10,3,196.107278131491,5.31434305602558,-6.521473916,-2.27158599825
mp-22220,LaLuO3,['icsd-51449'],Orthorhombic,Pnma,62.0,mmm,20.0,3.0,287.5241780269560,8.359650151374470,-8.848796716000000,-3.9893919642500000
mp-1106374,LaLuS3,,Orthorhombic,Pnma,62.0,mmm,20.0,3.0,484.78207567773200,5.618467249845160,-6.815472282,-2.442210836875
mp-1184964,LaMgO3,,Cubic,Pm-3m,221.0,m-3m,5.0,3.0,61.43297867320220,5.708989785524040,-7.22541901,-2.9501483522500000
mp-1232358,LaMgS3,,Trigonal,R-3,148.0,-3,30.0,3.0,746.9361231107160,3.460158669773300,-5.431638016666670,-1.642510665541670
mp-1238931,LaMgS3,,Monoclinic,C2/m,12.0,2/m,10.0,3.0,234.0419121863510,3.680989554398750,-5.497116522000000,-1.7079891708750000
mp-1232327,LaMgS3,,Monoclinic,C2/m,12.0,2/m,20.0,3.0,570.6858006747450,3.01919491611978,-5.375916514,-1.5867891628750000
mp-1232143,LaMgSe3,,Monoclinic,C2/m,12.0,2/m,10.0,3.0,306.9393941631010,4.328970918971220,-4.841762803,-1.4369584854062500
mp-989589,LaMnN3,,Monoclinic,C2/m,12.0,2/m,10.0,3.0,139.64132122783500,5.609525084025500,-8.729407514,-0.9079060795862080
mp-989554,LaMnN3,,Orthorhombic,Cmcm,63.0,mmm,10.0,3.0,131.3792039070710,5.962294418742820,-8.715835872,-0.8943344375862070
mp-1272996,LaMnO3,,Orthorhombic,Pbam,55.0,mmm,20.0,3.0,250.01810854808300,6.424936465973000,-8.7482045255,-2.960586819336210
mp-557795,LaMnO3,['icsd-162003'],Monoclinic,P2_1/c,14.0,2/m,20.0,3.0,297.1410300410420,5.406020375383020,-8.45312061,-2.665502903836210
mp-19157,LaMnO3,['icsd-150258'],Monoclinic,C2/c,15.0,2/m,10.0,3.0,118.730205264436,6.7647085220922,-8.785513627,-2.997895920836210
mp-1180932,LaMnO3,,Orthorhombic,Pnma,62.0,mmm,20.0,3.0,310.04857285439800,5.180963898577700,-8.293129757500000,-2.505512051336210
mp-1281528,LaMnO3,,Orthorhombic,Pmc2_1,26.0,mm2,20.0,3.0,250.30489980781900,6.417574981542560,-8.746746991,-2.9591292848362100
mp-1278230,LaMnO3,,Triclinic,P-1,2.0,-1,20.0,3.0,250.1558773215620,6.421398049741980,-8.7770562735,-2.9894385673362100
mp-566602,LaMnO3,,Monoclinic,P2_1/c,14.0,2/m,20.0,3.0,332.11459568010000,4.836735523395800,-8.503579954500000,-2.715962248336210
mp-1273769,LaMnO3,,Monoclinic,C2/m,12.0,2/m,20.0,3.0,248.53597536865300,6.463251287389980,-8.7477814135,-2.960163707336210
mp-17554,LaMnO3,"['icsd-185279', 'icsd-168694', 'icsd-82228', 'icsd-56616', 'icsd-83761', 'icsd-50335', 'icsd-16281', 'icsd-50336', 'icsd-91175', 'icsd-167070', 'icsd-82226', 'icsd-82227', 'icsd-51653', 'icsd-88388', 'icsd-162002', 'icsd-182575', 'icsd-90424', 'icsd-182576', 'icsd-161929', 'icsd-50334', 'icsd-16280', 'icsd-161928']",Orthorhombic,Pnma,62.0,mmm,20.0,3.0,255.08175724819100,6.297394529869170,-8.798112388,-3.0104946818362100
mp-1278019,LaMnO3,,Tetragonal,I4/mmm,139.0,4/mmm,20.0,3.0,245.45715843443800,6.544321106826600,-8.706018016,-2.918400309836210
mp-1279320,LaMnO3,,Tetragonal,P4/m,83.0,4/m,20.0,3.0,248.1817656076630,6.4724757632015900,-8.7524285425,-2.964810836336210
mp-645158,LaMnO3,,Monoclinic,P2_1/c,14.0,2/m,20.0,3.0,333.3011408804230,4.8195168444997200,-8.502294801,-2.714677094836210
mp-1273223,LaMnO3,,Orthorhombic,Cmmm,65.0,mmm,20.0,3.0,245.62877790261700,6.53974862587572,-8.687858434500000,-2.900240728336210
mp-1283081,LaMnO3,,Cubic,Fm-3m,225.0,m-3m,10.0,3.0,123.0117361342210,6.529256936148970,-8.698895915,-2.911278208836210
mp-1272373,LaMnO3,,Orthorhombic,Pnnm,58.0,mmm,20.0,3.0,248.71464164677800,6.4586083558582500,-8.750783121,-2.963165414836210
mp-19025,LaMnO3,"['icsd-29119', 'icsd-150259', 'icsd-188401']",Cubic,Pm-3m,221.0,m-3m,5.0,3.0,61.36672420481150,6.544061474598910,-8.717243282,-2.9296255758362100
mp-1180700,LaMnO3,,Orthorhombic,Pnma,62.0,mmm,20.0,3.0,248.67823882581800,6.459553800722040,-8.755401491500000,-2.9677837853362100
mp-19168,LaMnO3,"['icsd-167067', 'icsd-164470', 'icsd-80370', 'icsd-55966', 'icsd-188402', 'icsd-96038', 'icsd-167063', 'icsd-55970', 'icsd-167069', 'icsd-167068', 'icsd-55971', 'icsd-167062', 'icsd-154049', 'icsd-162001', 'icsd-180179', 'icsd-55968', 'icsd-167064', 'icsd-55972', 'icsd-161927', 'icsd-90355', 'icsd-167061', 'icsd-55953', 'icsd-55967', 'icsd-167066', 'icsd-55969', 'icsd-167065', 'icsd-55965', 'icsd-55973', 'icsd-155545']",Trigonal,R-3c,167.0,-3m,10.0,3.0,124.66110534715900,6.44286948319112,-8.782970226,-2.9953525198362100
mp-1278738,LaMnO3,,Tetragonal,P4/mmm,123.0,4/mmm,10.0,3.0,122.39876650609600,6.561955273806480,-8.708050088,-2.920432381836210
mp-1205375,LaMnO3,['icsd-180180'],Tetragonal,P4/mbm,127.0,4/mmm,10.0,3.0,123.72434334359400,6.491650791401590,-8.75642981,-2.968812103836210
mp-989603,LaMoN3,,Orthorhombic,Ama2,40.0,mm2,10.0,3.0,162.75904896753900,5.6494074903715000,-9.255385783,-1.0971573850000000
mp-989631,LaMoN3,,Monoclinic,C2/c,15.0,2/m,20.0,3.0,326.46148161474100,5.63308226021011,-9.272825628,-1.1145972300000000
mp-989534,LaMoN3,,Monoclinic,P2_1/m,11.0,2/m,10.0,3.0,171.56191974186600,5.359535447880460,-9.250023062,-1.0917946640000000
mp-989552,LaMoN3,,Trigonal,R3c,161.0,3m,10.0,3.0,133.3244203311770,6.896652451808450,-9.243476604,-1.085248206
mp-989515,LaMoN3,,Tetragonal,P4mm,99.0,4mm,5.0,3.0,70.81360396618,6.492341434861130,-9.23118073,-1.0729523320000000
mp-1075921,LaNiO3,,Cubic,Pm-3m,221.0,m-3m,5.0,3.0,57.378419163664600,7.10761180460951,-7.548532024000000,-2.4372900402500000
mp-1278441,LaNiO3,,Orthorhombic,Cmmm,65.0,mmm,20.0,3.0,230.37032604144100,7.0811816154504600,-7.540139836,-2.4288978522500000
mp-19339,LaNiO3,"['icsd-187087', 'icsd-173477', 'icsd-91042', 'icsd-67714', 'icsd-84933', 'icsd-67716', 'icsd-67717', 'icsd-93919', 'icsd-67715', 'icsd-187088']",Trigonal,R-3c,167.0,-3m,10.0,3.0,112.43959122238900,7.254091284819420,-7.58371008,-2.47246809625
mp-1284950,LaNiO3,,Triclinic,P-1,2.0,-1,20.0,3.0,232.95169096396100,7.0027142140914900,-7.5638215065,-2.45257952275
mp-989641,LaOsN3,,Monoclinic,P2_1/m,11.0,2/m,10.0,3.0,134.4571527846700,9.167505201574670,-8.823106173,-0.5885343109999990
mp-989632,LaOsN3,,Monoclinic,P2_1/c,14.0,2/m,20.0,3.0,339.36841749559700,7.264297936966240,-8.82753778,-0.5929659180000000
mp-989621,LaOsN3,,Orthorhombic,Pmma,51.0,mmm,10.0,3.0,140.01376512329900,8.803681884112580,-8.8480047,-0.6134328380000000
mp-989564,LaOsN3,,Cubic,Pm-3m,221.0,m-3m,5.0,3.0,61.655856812767200,9.996103462527320,-8.794814944000000,-0.5602430820000000
mp-989607,LaOsN3,,Orthorhombic,Pnma,62.0,mmm,20.0,3.0,246.28248460396400,10.009941628813200,-8.8106647385,-0.5760928765000000
mp-989588,LaOsN3,,Trigonal,R-3c,167.0,-3m,10.0,3.0,123.04124639492900,10.018076731651000,-8.811200116000000,-0.5766282539999990
mp-16415,LaPdO3,['icsd-93099'],Orthorhombic,Pnma,62.0,mmm,20.0,3.0,259.89702324528900,7.496436967402870,-7.354187217000000,-2.3629962072500000
mp-1185084,LaPtO3,,Cubic,Pm-3m,221.0,m-3m,5.0,3.0,68.38135116569360,9.276000520339740,-7.186035962,-2.01659465025
mp-989581,LaReN3,,Trigonal,R-3c,167.0,-3m,10.0,3.0,123.46020168977000,9.875862290232630,-9.437096227,-0.9590924139999980
mp-989614,LaReN3,,Monoclinic,P2_1/c,14.0,2/m,20.0,3.0,367.72951033262400,6.6313739634855000,-9.394924193,-0.9169203799999990
mp-989602,LaReN3,,Cubic,Pm-3m,221.0,m-3m,5.0,3.0,61.85917806687420,9.855255018862320,-9.429453882,-0.9514500689999990
mp-5163,LaRhO3,"['icsd-172347', 'icsd-172353']",Orthorhombic,Pnma,62.0,mmm,20.0,3.0,250.62051880749200,7.6807669369413900,-7.973849524,-2.5457733022500000
mp-20472,LaRuO3,['icsd-75569'],Orthorhombic,Pnma,62.0,mmm,20.0,3.0,256.6239132497040,7.453577075210140,-8.3709623095,-2.5608671537500000
mp-1222966,LaSbSe3,,Orthorhombic,Pnma,62.0,mmm,20.0,3.0,564.4478172687960,5.854880930127980,-5.30482389,-1.3942753344062500
mp-31116,LaScO3,"['icsd-99538', 'icsd-237284']",Orthorhombic,Pnma,62.0,mmm,20.0,3.0,267.3212593398150,5.761036661691380,-9.173035223,-3.9513267542500000
mp-1096800,LaScO3,,Cubic,Pm-3m,221.0,m-3m,5.0,3.0,67.8627929880572,5.673387093636160,-8.9689534,-3.7472449312500000
mp-1190131,LaScS3,,Orthorhombic,Pnma,62.0,mmm,20.0,3.0,458.30319977671300,4.058837585146460,-7.1151509410000000,-2.3795857788750000
mp-778450,LaSmO3,,Orthorhombic,Pna2_1,33.0,mm2,20.0,3.0,327.22444687835100,6.845937155644010,-8.7009754675,-3.8020435927500000
mp-1185122,LaSnO3,,Cubic,Pm-3m,221.0,m-3m,5.0,3.0,74.80253514100690,6.784308009954030,-7.205669656,-2.4485406372500000
mp-989620,LaTaN3,,Monoclinic,P2_1/c,14.0,2/m,20.0,3.0,277.6707981069450,8.656365811415050,-9.7345906085,-1.3739367065000000
mp-1239192,LaTaO3,,Cubic,Pm-3m,221.0,m-3m,5.0,3.0,67.56898400289600,9.040122158092280,-9.458368586,-3.1315984122500000
mp-989619,LaTcN3,,Monoclinic,C2/c,15.0,2/m,20.0,3.0,322.0690633817290,5.752391127485710,-8.8758376175,-0.8146114525000000
mp-989406,LaTcN3,,Monoclinic,P2/m,10.0,2/m,10.0,3.0,142.51842879636200,6.499746167149660,-8.83488222,-0.7736560550000010
mp-989593,LaTcN3,,Trigonal,R-3c,167.0,-3m,10.0,3.0,124.18184177716800,7.45949325650651,-8.842234127,-0.7810079620000000
mp-8020,LaTiO3,['icsd-28908'],Cubic,Pm-3m,221.0,m-3m,5.0,3.0,62.049187819988900,6.282852087570260,-9.13262696,-3.598313908916670
mp-22013,LaTiO3,"['icsd-98416', 'icsd-156365', 'icsd-181820', 'icsd-63574', 'icsd-63571', 'icsd-63575', 'icsd-98414', 'icsd-63572', 'icsd-20901', 'icsd-8146', 'icsd-63573', 'icsd-181740']",Orthorhombic,Pnma,62.0,mmm,20.0,3.0,250.78714658782200,6.217956135807600,-9.174762257000000,-3.640449205916670
mp-1211414,LaTiS3,,Orthorhombic,Pnma,62.0,mmm,20.0,3.0,403.54764938691000,4.657477640876630,-7.125148312,-2.076978567541670
mp-29257,LaTlO3,['icsd-200088'],Hexagonal,P6_3mc,186.0,6mm,10.0,3.0,158.82202214022200,8.182080686051080,-6.761665069,-2.333921791916670
mp-13374,LaTmO3,['icsd-419665'],Orthorhombic,Pnma,62.0,mmm,20.0,3.0,300.1437927284730,7.874661617948810,-8.8140954055,-3.9637136730833300
mp-556841,LaTmS3,['icsd-173036'],Orthorhombic,Pnma,62.0,mmm,60.0,3.0,1395.2577486371700,5.770248868123920,-6.812666385333330,-2.4484279595416700
mp-1199053,LaTmS3,['icsd-641865'],Monoclinic,P2_1/m,11.0,2/m,40.0,3.0,933.3866457636790,5.750374710812790,-6.83798674025,-2.4737483144583300
mp-989403,LaVN3,,Triclinic,P1,1.0,1,10.0,3.0,131.38653390551400,5.860940486792450,-9.060196034000000,-1.2543164440000000
mp-19053,LaVO3,['icsd-28925'],Cubic,Pm-3m,221.0,m-3m,5.0,3.0,61.633057964794700,6.408106455024790,-8.874802302,-3.1028064402500000
mp-19350,LaVO3,"['icsd-63520', 'icsd-86557', 'icsd-185831', 'icsd-73899', 'icsd-73901', 'icsd-73898', 'icsd-73900', 'icsd-86554']",Orthorhombic,Pnma,62.0,mmm,20.0,3.0,241.48199884564200,6.5421223689567800,-9.052061689,-3.28006582725
mp-1211380,LaVS3,,Orthorhombic,Pnma,62.0,mmm,20.0,3.0,396.38887929631900,4.793109904752430,-7.140139033500000,-1.8542864783750000
mp-989630,LaWN3,,Orthorhombic,Pnma,62.0,mmm,20.0,3.0,257.59197156705300,9.40568877905338,-9.772490596500000,-1.191766174500000
mp-989455,LaWN3,,Trigonal,R-3c,167.0,-3m,10.0,3.0,128.93932837601100,9.39523242077489,-9.769006789000000,-1.1882823670000000
mp-989626,LaWN3,,Orthorhombic,Amm2,38.0,mm2,10.0,3.0,131.99419891865700,9.177789389197170,-9.788354515,-1.2076300930000000
mp-989497,LaWN3,,Tetragonal,P4mm,99.0,4mm,5.0,3.0,67.0115554856844,9.038851206267160,-9.78459777,-1.203873348000000
mp-989646,LaWN3,,Monoclinic,P2_1/m,11.0,2/m,10.0,3.0,170.60443604759900,7.100723675984880,-9.787013003,-1.2062885810000000
mp-989699,LaWN3,,Monoclinic,Cm,8.0,m,5.0,3.0,61.81385242198860,9.798895480588960,-7.3569718560000000,1.2237525660000000
mp-989524,LaWN3,,Trigonal,R3c,161.0,3m,10.0,3.0,129.9967779367400,9.31880756968257,-9.80309992,-1.2223754980000000
mp-989633,LaWN3,,Monoclinic,C2/c,15.0,2/m,20.0,3.0,332.33039367612600,7.2904253196403300,-9.7921998565,-1.2114754345000000
mp-989601,LaWN3,,Trigonal,R3m,160.0,3m,5.0,3.0,66.29998165866550,9.135861941169180,-9.779770772,-1.199046350000000
mp-1189511,LaYbO3,"['icsd-189421', 'icsd-189419']",Orthorhombic,Pnma,62.0,mmm,20.0,3.0,305.877922083713,7.8161970205459800,-7.5339866865000000,-3.2708503827500000
mp-22530,LaYbO3,"['icsd-30399', 'icsd-15093']",Orthorhombic,Pna2_1,33.0,mm2,20.0,3.0,307.5601181624460,7.77344643228011,-7.5352689755,-3.2721326717500000
mp-684002,LaYbS3,['icsd-173037'],Orthorhombic,Pnma,62.0,mmm,60.0,3.0,1444.3368193171400,5.6308184021721900,-5.866023768333330,-2.0890307712083300
mp-1188442,LaYbS3,"['icsd-641881', 'icsd-641879']",Orthorhombic,Pna2_1,33.0,mm2,20.0,3.0,498.7561912329230,5.435386724083620,-5.8183699165,-2.0413769193750000
mp-21106,LaYbS3,['icsd-35441'],Orthorhombic,Pnma,62.0,mmm,20.0,3.0,499.02462393690800,5.432462949412860,-5.8764924235,-2.099499426375
mp-8215,LaYbS3,"['icsd-35440', 'icsd-99664']",Orthorhombic,Cmcm,63.0,mmm,10.0,3.0,251.5739014041330,5.3879451828094300,-5.864602717,-2.087609719875
mp-11784,LaYbSe3,['icsd-99665'],Orthorhombic,Cmcm,63.0,mmm,10.0,3.0,284.705131569081,6.402035176938680,-5.371474536,-1.97880457240625
mp-10429,LaYO3,['icsd-419666'],Orthorhombic,Pnma,62.0,mmm,20.0,3.0,311.9431159769750,5.872769225450700,-9.1327788055,-3.8842699350833300
mp-1200447,LaYS3,['icsd-641874'],Monoclinic,P2_1/m,11.0,2/m,40.0,3.0,956.4758933851980,4.500062413751800,-7.2171600285000000,-2.4547944647083300
mp-1184965,LaZnO3,,Cubic,Pm-3m,221.0,m-3m,5.0,3.0,60.61046362504100,6.912586053211710,-6.730767930000000,-2.523604560250000
mp-1185065,LaZrO3,,Cubic,Pm-3m,221.0,m-3m,5.0,3.0,73.75816404510210,6.261569380374260,-9.093685098,-3.4289303242500000
mp-1185297,LiAcO3,,Cubic,Pm-3m,221.0,m-3m,5.0,3.0,60.21066048006750,7.775550911967440,-6.582202892000000,-2.408170090416670
mp-759066,LiAgF3,,Trigonal,R3c,161.0,3m,10.0,3.0,130.2865559997590,4.379391745614570,-4.165693481,-2.0705103265
mp-752699,LiAgF3,,Orthorhombic,Cmmm,65.0,mmm,10.0,3.0,131.55010208325800,4.337327443111970,-4.176382158,-2.0811990035