material_id,formula_pretty,icsd,crystal_system,symbol,number,point_group,nsites,nelements,volume,density,energy_per_atom,formation_energy_per_atom
mp-998307,CsPdBr3,,Cubic,Pm-3m,221.0,m-3m,5.0,3.0,147.1719038789500,5.404974606421770,-3.435474112,-1.2886002775862100
mp-29882,CsPdCl3,['icsd-89568'],Orthorhombic,Ibam,72.0,mmm,20.0,3.0,636.5232181476740,3.6072370699476000,-3.8074593235000000,-1.4832804910862100
mp-1147710,CsPdCl3,,Cubic,Pm-3m,221.0,m-3m,5.0,3.0,129.8020118363030,4.422293067537940,-3.7649709520000000,-1.4407921195862100
mp-1207302,CsPdF3,,Cubic,Pm-3m,221.0,m-3m,5.0,3.0,86.01514171656480,5.720528093564080,-4.4641140320000000,-2.1021698150862100
mp-1183913,CsPdO3,,Cubic,Pm-3m,221.0,m-3m,5.0,3.0,74.07238969648930,6.4411604741401,-4.873876142,-0.6908060788362070
mp-1213226,CsPO3,,Monoclinic,P2_1/c,14.0,2/m,20.0,3.0,371.02901781186900,3.793026488181850,-6.9074490815,-2.677694879002870
mp-1213232,CsPO3,,Orthorhombic,Pnma,62.0,mmm,20.0,3.0,396.85663910950800,3.5461744966705200,-6.902588303500000,-2.6728341010028700
mp-1183919,CsPrO3,,Cubic,Pm-3m,221.0,m-3m,5.0,3.0,107.50687043553500,4.970661286236500,-6.231176656000000,-2.1279018038362100
mp-504838,CsPS3,['icsd-33277'],Orthorhombic,Immm,71.0,mmm,10.0,3.0,315.3575746673910,2.7388807315107100,-4.748621428,-1.0050105321278700
mp-1213235,CsPtBr3,,Orthorhombic,Pnma,62.0,mmm,20.0,3.0,950.7269067461580,3.9661881129327800,-3.392201976,-1.0670778395862100
mp-2647156,CsPuO3,,Tetragonal,P4/mbm,127.0,4/mmm,20.0,3.0,348.11346728457800,8.10734636639799,-8.905677414,-2.905016046836210
mp-1183926,CsRbO3,,Cubic,Pm-3m,221.0,m-3m,5.0,3.0,94.80428201626090,4.665614175855960,-3.76243748,-0.41923696433620700
mp-1183971,CsRuO3,,Cubic,Pm-3m,221.0,m-3m,5.0,3.0,67.44006663288720,6.942879627931560,-6.273033112,-1.2710589028362100
mp-1185561,CsSbO3,,Cubic,Pm-3m,221.0,m-3m,5.0,3.0,73.8242428170085,6.807856048934400,-5.590575104,-1.6176811548362100
mp-998308,CsScBr3,,Monoclinic,Pm,6.0,m,5.0,3.0,168.38626429989800,4.117894572995470,-4.35699825,-1.979606956586210
mp-998435,CsScBr3,,Orthorhombic,Pnma,62.0,mmm,20.0,3.0,675.3379230670440,4.106962516059930,-4.3707592045,-1.9933679110862100
mp-1213644,CsScBr3,,Hexagonal,P6_3/mmc,194.0,6/mmm,10.0,3.0,337.3644970365880,4.110668964981980,-4.440707495,-2.0633162015862100
mp-27359,CsScCl3,['icsd-10474'],Hexagonal,P6_3/mmc,194.0,6/mmm,10.0,3.0,292.71577011847900,3.2246914307909700,-4.892448718,-2.337752426586210
mp-1206489,CsScI3,,Hexagonal,P6_3/mmc,194.0,6/mmm,10.0,3.0,421.15731079320500,4.404697294373440,-3.907052393,-1.5774582875862100
mp-998415,CsSeBr3,,Monoclinic,Pm,6,m,5,3,172.346727248067,4.35089202127013,-2.982448976,-1.17236920805496
mp-1147745,CsSiI3,,Trigonal,R3m,160.0,3m,5.0,3.0,230.12230299940600,3.9088834231113000,-3.117877412,-0.9697135215862070
mp-1213166,CsSmBr3,,Orthorhombic,Pnma,62.0,mmm,20.0,3.0,780.5992591576990,4.450040041124000,-4.0646808625000000,-2.010066163086210
mp-567939,CsSmCl3,['icsd-31462'],Cubic,Pm-3m,221.0,m-3m,5.0,3.0,166.35630620018500,3.889161994881100,-4.52132734,-2.2894076425862100
mp-1205876,CsSmI3,,Orthorhombic,Cmcm,63.0,mmm,10.0,3.0,457.4321549214500,4.820661720953510,-3.568075503,-1.561257991586210
mp-1184022,CsSmO3,,Cubic,Pm-3m,221.0,m-3m,5.0,3.0,100.85670052802900,5.454037584460340,-6.280498904,-2.1896879758362100
mp-27214,CsSnBr3,['icsd-4071'],Cubic,Pm-3m,221.0,m-3m,5.0,3.0,199.07497852024200,4.098297206597590,-3.5265669380000000,-1.6137550945862100
mp-1247749,CsSnBr3,,Orthorhombic,Pnma,62.0,mmm,20.0,3.0,783.0209314899200,4.1677988189693000,-3.519272049,-1.6064602055862100
mp-27394,CsSnCl3,['icsd-14199'],Monoclinic,P2_1/c,14.0,2/m,20.0,3.0,707.7549033566640,3.35952776536324,-3.9016195680000000,-1.8115027265862100
mp-1070375,CsSnCl3,['icsd-28082'],Cubic,Pm-3m,221.0,m-3m,5.0,3.0,172.32384914406700,3.4494967770114800,-3.8977209680000000,-1.8076041265862100
mp-998457,CsSnF3,,Trigonal,R3c,161.0,3m,10.0,3.0,227.80237625838900,4.499163425834960,-4.897409129,-2.7695269030862100
mp-1105915,CsSnF3,['icsd-236903'],Monoclinic,P2_1/c,14.0,2/m,20.0,3.0,483.022706078646,4.243776148333530,-4.9109760295000000,-2.783093803586210
mp-27381,CsSnI3,"['icsd-262927', 'icsd-14070']",Orthorhombic,Pnma,62.0,mmm,20.0,3.0,910.5575123531860,4.612588502664030,-3.0762044355000000,-1.2111897800862100
mp-616378,CsSnI3,"['icsd-262925', 'icsd-69995']",Tetragonal,P4/mbm,127.0,4/mmm,10.0,3.0,477.1049992694420,4.401575249605300,-3.06760978,-1.2025951245862100
mp-614013,CsSnI3,"['icsd-262924', 'icsd-69997']",Cubic,Pm-3m,221.0,m-3m,5.0,3.0,248.41075007279000,4.226897498662960,-3.079453774,-1.214439118586210
mp-568570,CsSnI3,['icsd-69996'],Orthorhombic,Pnma,62.0,mmm,20.0,3.0,956.3187092803580,4.391869647363940,-3.068394613,-1.203379957586210
mp-984745,CsSnO3,,Cubic,Pm-3m,221.0,m-3m,5.0,3.0,78.07496246650330,6.372339584282170,-5.480339814,-1.531331741836210
mp-561710,CsSnS3,['icsd-73008'],Triclinic,P-1,2.0,-1,10.0,3.0,322.2707978105110,3.584270415288080,-4.468079328,-1.0052145624612100
mp-1542038,CsSnSe3,"['icsd-408148', 'icsd-402842']",Triclinic,P-1,2.0,-1,10.0,3.0,385.7905263288530,4.205213588085480,-4.047431396,-0.9688896639924570
mp-613162,CsSnSe3,"['icsd-402842', 'icsd-408148']",Triclinic,P-1,2.0,-1,10.0,3.0,362.33506353039000,4.477434636509230,-4.043477457,-0.9649357249924570
mp-1068320,CsSO3,['icsd-16443'],Trigonal,R3m,160,3m,5,3,119.753362367776,2.95309258503332,-5.862468574,-1.88808489946121
mp-561681,CsSO3,"['icsd-200865', 'icsd-200867', 'icsd-200866']",Hexagonal,P6_3mc,186,6mm,20,3,402.87071972123,3.51122828371138,-6.0498993345,-2.07551565996121
mp-998297,CsSrBr3,,Monoclinic,Cm,8.0,m,5.0,3.0,212.8528132518760,3.590472952255670,-3.830314646,-2.38151848291954
mp-1213104,CsSrBr3,,Orthorhombic,Pnma,62.0,mmm,20.0,3.0,823.8124854574990,3.710758369329500,-3.849744316,-2.4009481529195400
mp-998433,CsSrBr3,,Orthorhombic,Cmcm,63.0,mmm,10.0,3.0,397.1752980366080,3.8483877147966400,-3.844239462,-2.3954432989195400
mp-1213642,CsSrCl3,,Cubic,Pm-3m,221.0,m-3m,5.0,3.0,182.55680856735300,2.9733451570710100,-4.27827622,-2.65217505891954
mp-1213084,CsSrCl3,,Orthorhombic,Pnma,62.0,mmm,20.0,3.0,712.4138479474690,3.0476914743190300,-4.291098756000000,-2.66499759491954
mp-1080233,CsSrCl3,,Monoclinic,Cm,8.0,m,5.0,3.0,182.76182731550700,2.9700097149226800,-4.278201812,-2.65210065091954
mp-1213645,CsSrCl3,,Tetragonal,P4/mbm,127.0,4/mmm,10.0,3.0,356.3685601129980,3.0463091495611400,-4.281499447,-2.6553982859195400
mp-998561,CsSrCl3,,Trigonal,R3c,161.0,3m,10.0,3.0,360.0128133440410,3.0154726861088500,-4.287534933,-2.66143377191954
mp-8397,CsSrF3,['icsd-49578'],Cubic,Pm-3m,221.0,m-3m,5.0,3.0,108.0710349506570,4.264175876726180,-5.337036404,-3.67316985841954
mp-1080232,CsSrI3,,Orthorhombic,Cmcm,63.0,mmm,10.0,3.0,489.16953033220100,4.081941153877920,-3.3254363420000000,-1.9244373669195400
mp-998417,CsSrI3,,Monoclinic,Cm,8.0,m,5.0,3.0,270.812173687388,3.6866164653866400,-3.293743324,-1.8927443489195400
mp-1183972,CsSrO3,,Cubic,Pm-3m,221.0,m-3m,5.0,3.0,119.7970554329000,3.7220782487078900,-4.870726622,-1.3857342301695400
mp-1185552,CsTaO3,,Cubic,Pm-3m,221.0,m-3m,5.0,3.0,71.1719581712204,8.442490841455840,-8.299755210000000,-2.7811059828362100
mp-1225870,CsTaS3,,Hexagonal,P6_3mc,186.0,6mm,10.0,3.0,288.4055194292080,4.7218324785302700,-6.472226546,-1.4397206254612100
mp-685607,CsTaSe3,,Orthorhombic,Pnma,62.0,mmm,20.0,3.0,636.3777257598770,5.748247783542350,-5.909243042,-1.2610601549924600
mp-1225880,CsTaSe3,,Hexagonal,P6_3mc,186.0,6mm,10.0,3.0,316.305763736236,5.782469482037880,-5.91241344,-1.2642305529924600
mp-1185551,CsTbO3,,Cubic,Pm-3m,221.0,m-3m,5.0,3.0,96.95295739897540,5.82034162502607,-6.324694138,-2.250727216836210
mp-1183997,CsThO3,,Cubic,Pm-3m,221.0,m-3m,5.0,3.0,95.77858339239340,7.159281548667070,-7.59697365,-2.9671082988362100
mp-22962,CsTiBr3,"['icsd-41320', 'icsd-400053']",Hexagonal,P6_3/mmc,194.0,6/mmm,10.0,3.0,329.3500476380870,4.240053185266900,-4.453842156,-1.7638462802528700
mp-28283,CsTiCl3,['icsd-49748'],Hexagonal,P6_3/mmc,194.0,6/mmm,10.0,3.0,281.0166852432970,3.393342944862750,-4.924500535,-2.0571996612528700
mp-567698,CsTiI3,['icsd-154258'],Hexagonal,P6_3/mmc,194.0,6/mmm,10.0,3.0,414.13939964956400,4.502682960459560,-3.938046944,-1.2958482562528700
mp-1183977,CsTiO3,,Cubic,Pm-3m,221.0,m-3m,5.0,3.0,69.27365160285490,5.48379645047965,-7.088216598,-2.3620244935028700
mp-1112177,CsTlBr3,,Cubic,Fm-3m,225.0,m-3m,10.0,3.0,400.0094090948630,4.790548763118220,-3.08005807,-1.4966319682528700
mp-1080231,CsTlCl3,,Monoclinic,Cm,8.0,m,5.0,3.0,173.7367636100520,4.240290935156970,-3.4170010600000000,-1.6562699602528700
mp-1395579,CsTlCl3,,Tetragonal,P4mm,99.0,4mm,5.0,3.0,173.73670712399200,4.240292313779440,-3.4169185780000000,-1.6561874782528700
mp-1112176,CsTlCl3,,Cubic,Fm-3m,225.0,m-3m,10.0,3.0,348.56620284002700,4.2269985892884500,-3.4433859050000000,-1.6826548052528700
mp-1078203,CsTlF3,['icsd-193792'],Cubic,Fm-3m,225.0,m-3m,10.0,3.0,218.42703685232200,5.994898166816380,-4.3153950200000000,-2.5168985357528700
mp-998240,CsTlF3,,Orthorhombic,Amm2,38.0,mm2,10.0,3.0,206.63909378308200,6.336883398180720,-3.437686363,-1.6391898787528700
mp-2695837,CsTlF3,,Cubic,Pm-3m,221.0,m-3m,5.0,3.0,109.88079513850600,5.958492751888760,-4.252012616,-2.453516131752870
mp-998235,CsTlF3,,Orthorhombic,Amm2,38.0,mm2,5.0,3.0,110.35200315619900,5.933049719793690,-4.251130984,-2.452634499752870
mp-998234,CsTlF3,,Trigonal,R3m,160.0,3m,5.0,3.0,109.35558349863900,5.987110126962190,-4.250573076,-2.4520765917528700
mp-1112542,CsTlI3,,Cubic,Fm-3m,225.0,m-3m,10.0,3.0,503.7605164840440,4.7334818856371100,-2.6477376720000000,-1.1121087582528700
mp-1185544,CsTlO3,,Cubic,Pm-3m,221.0,m-3m,5.0,3.0,93.26801547114740,6.8596295552048400,-4.37959604,-0.7599737095028740
mp-1206103,CsTmBr3,,Tetragonal,P4/mbm,127.0,4/mmm,10.0,3.0,352.34364854809400,5.104492133590180,-3.945766732,-1.93970217491954
mp-579768,CsTmCl3,['icsd-31460'],Cubic,Pm-3m,221.0,m-3m,5.0,3.0,149.90644647326500,4.521685631042450,-4.412855600000000,-2.2294860449195400
mp-1207081,CsTmH3,,Cubic,Pm-3m,221.0,m-3m,5.0,3.0,88.22804230427570,5.737832422131380,-3.379162214,-0.26927902791954000
mp-1213177,CsTmI3,,Orthorhombic,Pnma,62.0,mmm,20.0,3.0,880.1065792769830,5.151221761568440,-3.406957912,-1.4486905429195400
mp-2647024,CsUBr3,,Cubic,Pm-3m,221.0,m-3m,5.0,3.0,193.71287247911600,5.234562509114770,-4.909576282,-1.5403968075862100
mp-865424,CsUO3,,Cubic,Pm-3m,221.0,m-3m,5.0,3.0,86.082677427204,8.081229651506300,-8.625488812,-3.2201131088362100
mp-23038,CsVBr3,"['icsd-201829', 'icsd-201833']",Hexagonal,P6_3/mmc,194.0,6/mmm,10.0,3.0,326.19875647830300,4.312316786436810,-4.563302533,-1.6356238465862100
mp-22977,CsVCl3,"['icsd-201828', 'icsd-15932', 'icsd-201832']",Hexagonal,P6_3/mmc,194.0,6/mmm,10.0,3.0,281.0246095963260,3.42958092661,-5.007629048,-1.9026453635862100
mp-22991,CsVI3,"['icsd-26453', 'icsd-26454']",Hexagonal,P6_3/mmc,194.0,6/mmm,10.0,3.0,407.9054999130540,4.596528051662020,-4.053066899,-1.1731854005862100
mp-504651,CsVO3,['icsd-1489'],Orthorhombic,Pbcm,57.0,mmm,20.0,3.0,387.56219181813700,3.973431260935960,-7.3827109065,-2.418835991336210
mp-568005,CsYbBr3,['icsd-77243'],Cubic,Pm-3m,221.0,m-3m,5.0,3.0,180.5916237413470,5.017317509471550,-3.815104572,-2.3962854435862100
mp-1070599,CsYbCl3,['icsd-31461'],Cubic,Pm-3m,221.0,m-3m,5.0,3.0,152.39505926755600,4.492584293766580,-4.297026958,-2.7009028315862100
mp-8398,CsYbF3,['icsd-49579'],Cubic,Pm-3m,221.0,m-3m,5.0,3.0,86.71260978619290,6.950282649368020,-5.524441392,-3.890551881086210
mp-1206323,CsYbH3,,Cubic,Pm-3m,221.0,m-3m,5.0,3.0,98.1155750637206,5.229093811412780,-2.9945655640000000,-0.4719278065862070
mp-1185576,CsYbI3,['icsd-72342'],Orthorhombic,Pnma,62.0,mmm,20.0,3.0,901.4763525007220,5.059362289200510,-3.2514233180000000,-1.8804013775862100
mp-1185564,CsYbO3,,Cubic,Pm-3m,221.0,m-3m,5.0,3.0,97.41702295090640,6.0332090178039400,-5.064260542,-1.6092451848362100
mp-1188802,CuAgF3,['icsd-174407'],Triclinic,P-1,2.0,-1,20.0,3.0,256.91807602701100,5.905115804774510,-4.0972582215,-1.5640183063333300
mp-998414,CuAgF3,,Cubic,Pm-3m,221.0,m-3m,5.0,3.0,64.40539697285880,5.888990141302520,-4.079691454,-1.5464515388333300
mp-998422,CuAgF3,,Trigonal,R-3c,167.0,-3m,10.0,3.0,120.99792184569200,6.269244000794280,-4.101862777,-1.5686228618333300
mp-776320,CuAsO3,,Trigonal,R-3,148.0,-3,10.0,3.0,109.0953559538200,5.6763872811578100,-5.981437807,-1.2617595652500000
mp-1178368,CuAsO3,,Orthorhombic,Pmma,51.0,mmm,10.0,3.0,142.25676785804900,4.353167165920580,-5.997871351,-1.2781931092500000
mp-1184051,CuBiO3,,Cubic,Pm-3m,221.0,m-3m,5.0,3.0,57.06920415385440,9.326284254314260,-5.659147852,-1.1031954652500000
mp-1184042,CuBO3,,Cubic,Pm-3m,221.0,m-3m,5.0,3.0,37.627671376176000,5.3996322964141000,-5.821350108,-0.6976171930833330
mp-1178374,CuCO3,,Triclinic,P-1,2.0,-1,10.0,3.0,119.7354338574420,3.4270179129117300,-6.9880521270000000,-1.3544644677500000
mp-1080068,CuCO3,,Monoclinic,P2_1,4.0,2,10.0,3.0,141.79916399797700,2.893779237270860,-6.943846078,-1.31025841875
mp-758727,CuCO3,,Triclinic,P1,1.0,1,45.0,3.0,561.522059938487,3.288400895738600,-6.947738281555560,-1.3141506223055600
mp-27249,CuCO3,['icsd-6179'],Monoclinic,Cm,8.0,m,5.0,3.0,58.39017677351740,3.5137372355568800,-6.9327557760000000,-1.2991681167500000
mp-760595,CuCO3,,Monoclinic,P2_1/c,14.0,2/m,20.0,3.0,279.5531014730280,2.935653187015730,-6.970161019,-1.3365733597500000
mp-760536,CuCO3,,Hexagonal,P-6,174.0,-6,15.0,3.0,185.5245816441250,3.3176369918474400,-6.9414154660000000,-1.3078278067500000
mp-1096939,CuGeI3,,Tetragonal,I4/mcm,140.0,4/mmm,10.0,3.0,360.9060677265740,4.756537728580230,-2.695035615,-0.06656889999999970
mp-1096949,CuGeI3,,Monoclinic,Cm,8.0,m,5.0,3.0,168.73725911026100,5.0867939205212200,-2.898231252,-0.26976453700000000
mp-554874,CuGeO3,['icsd-96085'],Monoclinic,P2_1/c,14.0,2/m,20.0,3.0,212.5891751634230,5.754668539738320,-6.2437126755,-1.53125254375
mp-1202570,CuGeO3,['icsd-56878'],Orthorhombic,Pbam,55.0,mmm,80.0,3.0,1021.2219494029700,4.791829000217190,-6.315011047875,-1.602550916125
mp-1181636,CuGeO3,,Orthorhombic,Pmna,53.0,mmm,20.0,3.0,247.32104725819600,4.946527001095460,-6.29691779,-1.5844576582500000
mp-561216,CuGeO3,,Orthorhombic,Cmce,64.0,mmm,80.0,3.0,1038.7552285727400,4.710947120363700,-6.3170465085,-1.6045863767500000
mp-554624,CuGeO3,,Orthorhombic,Pnnm,58.0,mmm,80.0,3.0,1030.8101295728000,4.747257339075150,-6.3118368531250000,-1.5993767213750000
mp-21344,CuGeO3,"['icsd-56699', 'icsd-246664', 'icsd-56606', 'icsd-56607', 'icsd-411017', 'icsd-85324', 'icsd-89401', 'icsd-89407', 'icsd-78475', 'icsd-89402', 'icsd-50329', 'icsd-56700', 'icsd-16834', 'icsd-85326', 'icsd-89400', 'icsd-411018', 'icsd-56701', 'icsd-50330', 'icsd-89406', 'icsd-89403', 'icsd-85325', 'icsd-89404', 'icsd-89405', 'icsd-56702', 'icsd-25754', 'icsd-411019', 'icsd-50331']",Orthorhombic,Pmma,51.0,mmm,10.0,3.0,128.8512423547680,4.747258217478110,-6.304190812,-1.59173068025
mp-1181557,CuGeO3,,Orthorhombic,Pmma,51.0,mmm,10.0,3.0,155.68749930553800,3.9289610394505000,-6.000480524,-1.2880203922500000
mp-1096790,CuPbBr3,,Tetragonal,I4/mcm,140.0,4/mmm,10.0,3.0,364.9918192233400,4.644681914581930,-3.061815378,-0.567627632
mp-1184117,CuPbO3,,Cubic,Pm-3m,221.0,m-3m,5.0,3.0,58.10400510519210,9.109306585560450,-5.448978686,-0.9185947112500000
mp-1184073,CuPdO3,,Cubic,Pm-3m,221.0,m-3m,5.0,3.0,54.57419554411090,6.63203672746162,-4.919253298,-0.09542237525000060
mp-772255,CuPO3,,Trigonal,R-3,148.0,-3,30.0,3.0,516.1115298012880,2.7512267786499300,-6.853014276666670,-1.9824992145833300
mp-772192,CuPO3,,Monoclinic,P2_1/c,14.0,2/m,40.0,3.0,527.1976932446770,3.5911635673015700,-6.792651254750000,-1.9221361926666700
mp-766856,CuPO3,,Monoclinic,P2_1/c,14.0,2/m,40.0,3.0,539.814837280916,3.5072269563433200,-6.77496752375,-1.9044524616666700
mp-1105187,CuPS3,['icsd-430200'],Tetragonal,P4_2/mnm,136.0,4/mmm,20.0,3.0,420.37823665904100,3.013374958658290,-4.908199633000000,-0.5238278775416670
mp-28741,CuSe3Br,['icsd-10129'],Orthorhombic,Pmna,53,mmm,20,3,524.088183957186,4.82020272566627,-3.780614001,-0.55262011440625
mp-29450,CuSe3I,['icsd-202404'],Trigonal,R-3m,166,-3m,30,3,872.858966412739,4.87775666233804,-3.390994607,-0.17893311640625
mp-554440,CuSeO3,['icsd-29507'],Monoclinic,P2_1/c,14,2/m,40,3,537.157622964531,4.71131232885462,-5.57203784775,-1.08500099146875
mp-560049,CuSeO3,['icsd-29508'],Triclinic,P-1,2,-1,30,3,399.285843688651,4.75358199823458,-5.580940329,-1.09390347271875
mp-22688,CuSeO3,"['icsd-61342', 'icsd-29506']",Orthorhombic,Pbca,61,mmm,40,3,509.714948381459,4.96496588857564,-5.57061112425,-1.08357426796875
mp-22414,CuSeO3,"['icsd-51847', 'icsd-97747', 'icsd-498']",Orthorhombic,Pnma,62,mmm,20,3,246.169549747677,5.14019165693932,-5.5545403285,-1.06750347221875
mp-16053,CuSiO3,['icsd-89669'],Orthorhombic,Pmma,51.0,mmm,10.0,3.0,126.01771806237500,3.679809081971690,-7.123297562,-2.2503793952500000
mp-556982,CuSiO3,"['icsd-247127', 'icsd-65955']",Trigonal,R-3,148.0,-3,30.0,3.0,481.17749239410800,2.891164803499160,-7.157524646333330,-2.284606479583330
mp-754936,DyAlO3,,Trigonal,R-3c,167.0,-3m,10.0,3.0,103.67050239510900,7.607648740204470,-8.359551958,-3.7210661972500000
mp-984723,DyAlO3,,Cubic,Pm-3m,221.0,m-3m,5.0,3.0,51.11631980728930,7.7146473955470800,-8.25859651,-3.62011074925
mp-756630,DyAlO3,['icsd-188422'],Orthorhombic,Pnma,62.0,mmm,20.0,3.0,202.34271003182800,7.795573824413560,-8.38752288,-3.7490371192500000
mp-1207000,DyBiO3,,Cubic,Pm-3m,221.0,m-3m,5.0,3.0,86.47783908075130,8.054787334038730,-6.355123798,-1.6976553772500000
mp-753318,DyBO3,,Orthorhombic,Ama2,40.0,mm2,10.0,3.0,120.53706474895900,6.097586218203750,-8.692332451,-3.4670835020833300
mp-10792,DyBO3,['icsd-412169'],Triclinic,P-1,2.0,-1,60.0,3.0,602.8154083542860,7.3155244667935300,-8.723935746666670,-3.4986867977500000
mp-12315,DyBO3,['icsd-59849'],Triclinic,P-1,2.0,-1,20.0,3.0,220.04324872629800,6.6803698731989,-8.7523384695,-3.527089520583330
mp-22137,DyCoO3,"['icsd-172047', 'icsd-23658', 'icsd-190949', 'icsd-190951', 'icsd-190950']",Orthorhombic,Pnma,62.0,mmm,20.0,3.0,203.8572689897280,8.778717764311480,-7.927326137,-2.61629198325
mp-19381,DyCrO3,"['icsd-251079', 'icsd-16506', 'icsd-16505', 'icsd-251082', 'icsd-16507', 'icsd-28248']",Orthorhombic,Pnma,62.0,mmm,20.0,3.0,218.53793938887300,7.978148620394880,-9.043801588000000,-3.2238214992500000
mp-1225651,DyCrS3,,Orthorhombic,Pnnm,58.0,mmm,40.0,3.0,779.1694704678410,5.297073140046450,-6.9037525545,-1.569915772375000
mp-1212890,DyCrSe3,,Orthorhombic,Pnma,62.0,mmm,20.0,3.0,424.9280463356150,7.055572389190430,-6.3886903305,-1.4391765819062500
mp-1183771,DyCuO3,,Cubic,Pm-3m,221.0,m-3m,5.0,3.0,53.8174026175188,8.455649621541020,-6.945122254,-2.2359103252500000
mp-772188,DyErO3,,Hexagonal,P6_3cm,185.0,6mm,30.0,3.0,452.19113643002900,8.323213850342590,-8.752872202333330,-3.949957845583330
mp-22283,DyFeO3,"['icsd-280091', 'icsd-189731', 'icsd-27280']",Orthorhombic,Pnma,62.0,mmm,20.0,3.0,225.748611771436,7.836562719084110,-8.436198846,-2.852824009250000
mp-755612,DyGaO3,['icsd-429061'],Orthorhombic,Pnma,62.0,mmm,20.0,3.0,226.90885588842500,8.202734054916510,-7.6296917765000000,-3.1347019772500000
mp-769015,DyGaO3,,Hexagonal,P6_3cm,185.0,6mm,30.0,3.0,380.29105744080000,7.3415071028111400,-7.653000484333330,-3.1580106850833300
mp-1225852,DyGaSe3,,Orthorhombic,Pnma,62.0,mmm,20.0,3.0,506.78423662336100,6.14828798108952,-4.913268002000000,-1.2887445429062500
mp-768145,DyHoO3,,Hexagonal,P6_3cm,185.0,6mm,30.0,3.0,455.5118362027300,8.211602965658580,-8.738186537333330,-3.9323341685833300
mp-1183823,DyInO3,,Cubic,Pm-3m,221.0,m-3m,5.0,3.0,70.02291696360380,7.714620905876320,-6.7450798480000000,-2.30537250725
mp-768149,DyInO3,,Hexagonal,P6_3cm,185.0,6mm,30.0,3.0,420.1945036650190,7.713574371670150,-7.439521238,-2.9998138972500000
mp-1178360,DyInO3,,Orthorhombic,Pnma,62.0,mmm,20.0,3.0,265.3557805952960,8.143033596418820,-7.379810134,-2.94010279325
mp-756469,DyLuO3,,Orthorhombic,Pnma,62.0,mmm,20.0,3.0,271.54834506925200,9.428597670172420,-8.785891342,-3.992330643250000