nsites,nelements,formula_pretty,volume,density,crystal_system,symbol,number,point_group,symprec,version,material_id,energy_per_atom,formation_energy_per_atom,e_total,e_electronic,icsd
80.0,3.0,MgSiO3,873.6374877360022,3.0529707900183154,Monoclinic,P2/c,13.0,2/m,0.1,1.16.2,mp-1020123,-7.5903141325,-3.217181289749999,,,['icsd-5223']
5.0,3.0,MgSiO3,43.8830602686278,3.79871770962978,Cubic,Pm-3m,221.0,m-3m,0.1,1.16.2,mp-1016928,-7.143716374,-2.77058353125,,,
40.0,3.0,MgSiO3,414.5371506675578,3.2170696001888355,Monoclinic,P2_1/c,14.0,2/m,0.1,1.16.2,mp-3470,-7.603293569250001,-3.2301607265000003,,,"['icsd-196432', 'icsd-34163', 'icsd-92750', 'icsd-201535', 'icsd-5218', 'icsd-159551', 'icsd-159553', 'icsd-159550', 'icsd-159552', 'icsd-180445', 'icsd-24270', 'icsd-30893', 'icsd-30895']"
20.0,3.0,MgSiO3,201.4815416490465,3.3094715641109214,Monoclinic,C2/c,15.0,2/m,0.1,1.16.2,mp-4321,-7.591702607499999,-3.2185697647499993,,,"['icsd-64981', 'icsd-159518', 'icsd-80669', 'icsd-180446', 'icsd-81138', 'icsd-5219', 'icsd-189830', 'icsd-159519', 'icsd-159516', 'icsd-158573', 'icsd-159517']"
40.0,3.0,MgSiO3,436.5315647670951,3.0549792344867863,Monoclinic,P2/c,13.0,2/m,0.1,1.16.2,mp-1195746,-7.58934849275,-3.2162156499999996,,,
80.0,3.0,MgSiO3,876.3740558702989,3.0434375746944013,Monoclinic,P2/c,13.0,2/m,0.1,1.16.2,mp-1196002,-7.594132940874999,-3.221000098124999,,,
40.0,3.0,MgSiO3,499.10108595980574,2.6719935160968538,Monoclinic,P2_1/c,14.0,2/m,0.1,1.16.2,mp-1182302,-7.316306207249999,-2.9431733644999993,,,
20.0,3.0,MgSiO3,194.44017702385622,3.4293192023731756,Monoclinic,C2/c,15.0,2/m,0.1,1.16.2,mp-603907,-7.419682396499999,-3.046549553749999,,,"['icsd-189830', 'icsd-159514', 'icsd-159515', 'icsd-159516', 'icsd-158573']"
80.0,3.0,MgSiO3,874.8657585325333,3.0486845611569504,Monoclinic,P2_1/c,14.0,2/m,0.1,1.16.2,mp-1020124,-7.600779998,-3.2276471552499997,,,['icsd-5226']
40.0,3.0,MgSiO3,516.8651038561686,2.5801603853925634,Monoclinic,P2_1/c,14.0,2/m,0.1,1.16.2,mp-1181528,-7.3105009675,-2.9373681247500003,,,
10.0,3.0,MgPS3,218.3408527787415,2.3039948426029073,Monoclinic,C2/m,12.0,2/m,0.1,1.16.2,mp-675651,-4.94403728,-1.0594508485416667,7.069665662996935,4.395569452922173,['icsd-642729']
10.0,3.0,MgPSe3,249.71224882379616,3.88560064823108,Trigonal,R-3,148.0,-3,0.1,1.16.2,mp-30943,-4.388379354,-0.8881159560729166,8.170245143333338,5.620336040000002,"['icsd-413165', 'icsd-642731']"
5.0,3.0,KMgH3,63.4304022052392,1.7389898850840848,Cubic,Pm-3m,221.0,m-3m,0.1,1.16.2,mp-23737,-2.9351239380000003,-0.35735251160000026,9.44939546666667,3.550734350000006,"['icsd-181941', 'icsd-638208', 'icsd-638209', 'icsd-181939', 'icsd-159175', 'icsd-56061']"
5.0,3.0,KMgH3,87.28447768517216,1.2637393356420887,Cubic,Pm-3m,221.0,m-3m,0.1,1.16.2,mp-1017580,-1.8864750819999998,0.6912963444000002,,,['icsd-181940']
5.0,3.0,KMgO3,70.32747214842628,2.630359618747925,Cubic,Pm-3m,221.0,m-3m,0.1,1.16.2,mp-1184960,-4.960399644000001,-1.4502506178500005,,,
5.0,3.0,KMgF3,62.97202846293481,3.174844984847381,Cubic,Pm-3m,221.0,m-3m,0.1,1.16.2,mp-3448,-5.2369044240000004,-3.5478812441,6.928200843333332,2.057361899999998,"['icsd-56096', 'icsd-28949', 'icsd-40476', 'icsd-94089', 'icsd-192409', 'icsd-40477']"
20.0,3.0,KMgCl3,482.71505867649836,2.335928213706615,Orthorhombic,Pnma,62.0,mmm,0.1,1.16.2,mp-27865,-3.9119917455,-2.2607339500999997,,,['icsd-27930']
5.0,3.0,CaMgO3,61.40444465533577,3.0390857534638096,Cubic,Pm-3m,221.0,m-3m,0.1,1.16.2,mp-1183532,-5.924580274,-2.23539106125,,,
10.0,3.0,MgScS3,240.86843499652252,2.281295228076674,Monoclinic,C2/m,12.0,2/m,0.1,1.16.2,mp-1232175,-5.549591523,-1.4811717718750004,,,
30.0,3.0,MgScS3,632.4799367170557,2.606368895450113,Trigonal,R-3,148.0,-3,0.1,1.16.2,mp-1232226,-5.652508107,-1.5840883558750003,,,
10.0,3.0,MgScSe3,243.8167948310451,4.170007604380365,Trigonal,R-3,148.0,-3,0.1,1.16.2,mp-1232171,-5.138133900000001,-1.4540371824062504,,,
10.0,3.0,MgScSe3,265.9173497134681,3.8234357014186604,Monoclinic,C2/m,12.0,2/m,0.1,1.16.2,mp-1232150,-5.028159294,-1.3440625764062504,,,
20.0,3.0,MgTiO3,201.89153104024365,3.95355487598653,Orthorhombic,Pnma,62.0,mmm,0.1,1.16.2,mp-1345923,-8.153997927999999,-3.286830287916666,,,
5.0,3.0,MgTiO3,56.73341366101276,3.5172801857728566,Cubic,Pm-3m,221.0,m-3m,0.1,1.16.2,mp-1016830,-7.781427676,-2.9142600359166666,,,
10.0,3.0,MgTiO3,102.51861914678508,3.8928989368345968,Trigonal,R-3,148.0,-3,0.1,1.16.2,mp-3771,-8.236905655,-3.369738014916666,19.870647409997137,4.7657668766666665,"['icsd-169660', 'icsd-164766', 'icsd-169652', 'icsd-169651', 'icsd-169644', 'icsd-169650', 'icsd-55285', 'icsd-169649', 'icsd-169659', 'icsd-171791', 'icsd-169645', 'icsd-169658', 'icsd-156217', 'icsd-169646', 'icsd-169657', 'icsd-169655', 'icsd-169654', 'icsd-65794', 'icsd-169656', 'icsd-171794', 'icsd-169648', 'icsd-171793', 'icsd-5314', 'icsd-169653', 'icsd-291380', 'icsd-169647', 'icsd-169661', 'icsd-169642', 'icsd-169643', 'icsd-171792']"
10.0,3.0,MgVO3,144.72309292040592,2.828196039369485,Orthorhombic,Cmmm,65.0,mmm,0.1,1.16.2,mp-545348,-7.61839454,-2.51354408925,,,['icsd-15927']
5.0,3.0,MgVO3,53.97676689030422,3.791494950360921,Cubic,Pm-3m,221.0,m-3m,0.1,1.16.2,mp-1016886,-7.3699896460000005,-2.2651391952500006,,,
10.0,3.0,MgVO3,139.19166731988958,2.9405875084614848,Orthorhombic,Cmcm,63.0,mmm,0.1,1.16.2,mp-27186,-7.880577794,-2.77572734325,6.436621653458082,3.3015232866665296,
20.0,3.0,MgVO3,199.17780674801926,4.109948642226068,Orthorhombic,Pnma,62.0,mmm,0.1,1.16.2,mp-1370061,-7.7877612565000005,-2.6829108057500006,,,
10.0,3.0,MgVO3,145.497817784871,2.8131368870973814,Orthorhombic,Cmc2_1,36.0,mm2,0.1,1.16.2,mp-1079330,-7.695857052000001,-2.591006601250001,,,['icsd-284']
20.0,3.0,MgVS3,432.8756477405094,2.63064286357971,Monoclinic,Cm,8.0,m,0.1,1.16.2,mp-1147661,-5.789722837499999,-1.171015693375,,,
20.0,3.0,MgCrO3,193.58508667463838,4.264870753147212,Orthorhombic,Pnma,62.0,mmm,0.1,1.16.2,mp-1346485,-7.6111173700000005,-2.392438639250001,,,
5.0,3.0,MgCrO3,75.77346345087477,2.7239594734223607,Monoclinic,Pm,6.0,m,0.1,1.16.2,mp-2225290,-7.559965722000001,-2.3412869912500014,,,
5.0,3.0,MgMnO3,52.132135357475256,4.05295230583769,Cubic,Pm-3m,221.0,m-3m,0.1,1.16.2,mp-976446,-7.002803858,-1.8823315628362067,,,
20.0,3.0,MgMnO3,191.23146819271153,4.419545803881975,Orthorhombic,Pnma,62.0,mmm,0.1,1.16.2,mp-770581,-7.416279121,-2.2958068258362063,,,
10.0,3.0,MgMnO3,96.25948702724264,4.389989282729596,Trigonal,R-3,148.0,-3,0.1,1.16.2,mp-770618,-7.493016056,-2.372543760836207,12.818991837434316,5.9659567866961245,
5.0,3.0,MgFeO3,53.40651528572358,3.984440686235031,Cubic,Pm-3m,221.0,m-3m,0.1,1.16.2,mp-1076368,-6.604848745999999,-1.6227752672499989,,,
20.0,3.0,MgFeO3,208.42994947102034,4.083771894673067,Triclinic,P-1,2.0,-1,0.1,1.16.2,mp-1279364,-6.998651236500001,-2.016577757750001,,,
20.0,3.0,MgFeO3,199.09919819453083,4.275157194888503,Orthorhombic,Pnma,62.0,mmm,0.1,1.16.2,mp-1372708,-6.961707060500001,-1.9796335817500008,,,
20.0,3.0,MgFeO3,224.71514966344782,3.7878192499823853,Monoclinic,C2/c,15.0,2/m,0.1,1.16.2,mp-752416,-6.936062445499999,-1.9539889667499992,,,
10.0,3.0,MgFeO3,104.72919564011151,4.063720553067422,Trigonal,R-3,148.0,-3,0.1,1.16.2,mp-754508,-6.997321393999999,-2.0152479152499994,,,
20.0,3.0,MgFeO3,207.60205016957303,4.100057629308676,Trigonal,R3,146.0,1,0.1,1.16.2,mp-1303831,-6.998474354000001,-2.016400875250001,,,
5.0,3.0,MgCoO3,50.55166582011618,4.310899696811377,Cubic,Pm-3m,221.0,m-3m,0.1,1.16.2,mp-1076820,-6.06259998,-1.3528671842500004,,,
20.0,3.0,MgCoO3,182.3366975439391,4.780675833063921,Orthorhombic,Pnma,62.0,mmm,0.1,1.16.2,mp-756102,-6.521940485,-1.8122076892500005,,,
10.0,3.0,MgCoO3,95.380426271781,4.569557284977725,Trigonal,R-3,148.0,-3,0.1,1.16.2,mp-761524,-6.547917791000001,-1.8381849952500005,,,
20.0,3.0,MgCoO3,200.25535230021822,4.352905594863571,Monoclinic,C2/c,15.0,2/m,0.1,1.16.2,mp-755711,-6.510295363500001,-1.8005625677500006,,,
5.0,3.0,MgNiH3,36.39482964119878,3.9248227925200103,Cubic,Pm-3m,221.0,m-3m,0.1,1.16.2,mp-1017629,-3.771069216,-0.2593502430000001,,,['icsd-187259']
5.0,3.0,MgCuO3,51.9444260137228,4.342774019810358,Cubic,Pm-3m,221.0,m-3m,0.1,1.16.2,mp-1076317,-5.2701006999999995,-1.1621901292499999,,,
5.0,3.0,MgZnO3,55.75597083930134,4.101381154433109,Cubic,Pm-3m,221.0,m-3m,0.1,1.16.2,mp-1185612,-4.774701934,-1.2346839752500003,,,
20.0,3.0,MgGeO3,217.50525204727657,4.426262699821197,Monoclinic,C2/c,15.0,2/m,0.1,1.16.2,mp-4819,-6.77348626,-2.5608114522500003,8.808741633333334,3.3883678566666666,"['icsd-201660', 'icsd-201664', 'icsd-201663', 'icsd-201661', 'icsd-35534', 'icsd-201662', 'icsd-196439']"
10.0,3.0,MgGeO3,101.02990576537422,4.764605969186327,Trigonal,R-3,148.0,-3,0.1,1.16.2,mp-3759,-6.753412116999999,-2.5407373092499994,11.406603326661667,3.6685865566666673,"['icsd-40333', 'icsd-171787', 'icsd-171790', 'icsd-171788', 'icsd-171789', 'icsd-200415', 'icsd-171786']"
80.0,3.0,MgGeO3,896.0510826234963,4.297680803345858,Orthorhombic,Pbca,61.0,mmm,0.1,1.16.2,mp-4575,-6.77236448675,-2.5596896790000003,,,"['icsd-201665', 'icsd-201666', 'icsd-35533']"
10.0,3.0,MgGeO3,94.99514239706198,5.067287441541032,Orthorhombic,Cmcm,63.0,mmm,0.1,1.16.2,mp-3047,-6.616796403,-2.4041215952500012,,,"['icsd-160855', 'icsd-160827', 'icsd-160854', 'icsd-160856', 'icsd-160848', 'icsd-160828', 'icsd-160841', 'icsd-160844', 'icsd-160843', 'icsd-160850', 'icsd-171825', 'icsd-171826', 'icsd-160836', 'icsd-160832', 'icsd-160852', 'icsd-160833', 'icsd-160839', 'icsd-160846', 'icsd-160851', 'icsd-160847', 'icsd-160840', 'icsd-160849', 'icsd-160825', 'icsd-160826', 'icsd-160837', 'icsd-160830', 'icsd-160831', 'icsd-160853', 'icsd-160824', 'icsd-160842', 'icsd-160829', 'icsd-160845', 'icsd-160834', 'icsd-160838', 'icsd-160835']"
5.0,3.0,MgGeO3,51.40303697478925,4.682288444475782,Cubic,Pm-3m,221.0,m-3m,0.1,1.16.2,mp-1016827,-6.26025941,-2.04758460225,,,
30.0,3.0,RbMgH3,428.6656151988668,2.6216685563204,Hexagonal,P6_3/mmc,194.0,6/mmm,0.1,1.16.2,mp-23738,-2.8848991706666665,-0.33310071916666667,,,"['icsd-88052', 'icsd-159176', 'icsd-159899']"
5.0,3.0,RbMgO3,73.81009484134074,3.5494455011838277,Cubic,Pm-3m,221.0,m-3m,0.1,1.16.2,mp-1186884,-4.88328735,-1.3991112987499996,,,
30.0,3.0,RbMgF3,593.1969830874103,2.8010067774648575,Hexagonal,P6_3/mmc,194.0,6/mmm,0.1,1.16.2,mp-559523,-4.609099074666667,-2.946048869666667,,,
5.0,3.0,RbMgF3,66.77191431471459,4.147324482786284,Cubic,Pm-3m,221.0,m-3m,0.1,1.16.2,mp-8402,-5.1704084,-3.5073581950000006,6.478023223333324,2.1855186699999956,['icsd-49585']
30.0,3.0,RbMgF3,416.3762264433625,3.9904986511653173,Hexagonal,P6_3/mmc,194.0,6/mmm,0.1,1.16.2,mp-541813,-5.172563004,-3.509512799,,,"['icsd-33689', 'icsd-410385']"
30.0,3.0,RbMgCl3,767.7004620050823,2.804963512700363,Hexagonal,P6_3/mmc,194.0,6/mmm,0.1,1.16.2,mp-662499,-3.9042653253333337,-2.2789805048333336,,,['icsd-15279']
20.0,3.0,RbMgCl3,517.507435445248,2.774030074569228,Hexagonal,P6_3/mmc,194.0,6/mmm,0.1,1.16.2,mp-27208,-3.908508912,-2.2832240915,,,['icsd-4036']
5.0,3.0,SrMgO3,65.23522261710269,4.070787384514324,Cubic,Pm-3m,221.0,m-3m,0.1,1.16.2,mp-1187182,-5.950681476,-2.3247135485833335,,,
10.0,3.0,YMgS3,261.7865339868308,2.656565938697763,Monoclinic,C2/m,12.0,2/m,0.1,1.16.2,mp-1237973,-5.654397912,-1.559177759208334,,,
20.0,3.0,YMgS3,511.3976916245505,2.7198135650159934,Monoclinic,C2/m,12.0,2/m,0.1,1.16.2,mp-1232166,-5.6131151395000005,-1.517894986708334,,,
10.0,3.0,YMgSe3,287.56634160607763,4.043168126265262,Monoclinic,C2/m,12.0,2/m,0.1,1.16.2,mp-1232305,-5.151392949,-1.4404958297395836,,,
30.0,3.0,YMgSe3,799.1719285192389,4.364564213570515,Trigonal,R-3,148.0,-3,0.1,1.16.2,mp-1232338,-5.2202584540000005,-1.509361334739584,,,
5.0,3.0,MgZrO3,70.61532784659279,3.845387571401235,Cubic,Pm-3m,221.0,m-3m,0.1,1.16.2,mp-1017000,-7.840343098,-2.8427337352499995,,,
5.0,3.0,MgMoO3,64.1182487522513,4.357174622302637,Cubic,Pm-3m,221.0,m-3m,0.1,1.16.2,mp-1185896,-7.251489126,-1.79428986725,,,
20.0,3.0,MgMoO3,223.94475808554958,4.990059310663976,Orthorhombic,Pnma,62.0,mmm,0.1,1.16.2,mp-1342607,-7.832319317999999,-2.375120059249999,,,
5.0,3.0,MgRuO3,58.5623184227951,4.916010490277894,Cubic,Pm-3m,221.0,m-3m,0.1,1.16.2,mp-1016829,-6.605691234,-1.46274148925,,,
5.0,3.0,MgRhO3,59.32881099084245,4.903871935055412,Cubic,Pm-3m,221.0,m-3m,0.1,1.16.2,mp-1016929,-5.9975308599999995,-1.23660004925,,,
5.0,3.0,MgAgF3,85.15316324173547,3.688900357296797,Cubic,Pm-3m,221.0,m-3m,0.1,1.16.2,mp-1210575,-3.628846704,-1.5953921128333335,,,
10.0,3.0,MgAgF3,118.96793829688532,5.2807762966102345,Trigonal,R-3c,167.0,-3m,0.1,1.16.2,mp-998418,-4.806576408,-2.7731218168333336,,,
5.0,3.0,MgAgF3,63.436080433127024,4.951780314335952,Cubic,Pm-3m,221.0,m-3m,0.1,1.16.2,mp-998358,-4.79154036,-2.7580857688333333,21.426395868040327,2.7255955388058877,
5.0,3.0,MgInO3,58.578606738934866,5.3043607570568465,Cubic,Pm-3m,221.0,m-3m,0.1,1.16.2,mp-1185889,-5.259050988,-1.4206450052500004,,,
10.0,3.0,MgInS3,226.58847478864658,3.449025661509575,Monoclinic,C2/m,12.0,2/m,0.1,1.16.2,mp-1232299,-4.295739852,-0.9434771758750002,,,
30.0,3.0,MgInSe3,1133.7556581207348,3.304244611367453,Trigonal,R-3,148.0,-3,0.1,1.16.2,mp-1232401,-3.7399101376666666,-0.7719704950729162,,,
20.0,3.0,MgInSe3,594.8880359468758,4.1982197182029495,Monoclinic,C2/m,12.0,2/m,0.1,1.16.2,mp-1232193,-3.738031033,-0.77009139040625,,,
10.0,3.0,MgInSe3,288.03260275391074,4.335395817620319,Monoclinic,C2/m,12.0,2/m,0.1,1.16.2,mp-1237970,-3.750943127,-0.7830034844062499,,,
20.0,3.0,MgInBr3,583.8730184385521,4.30963786597113,Orthorhombic,Pnma,62.0,mmm,0.1,1.16.2,mp-29483,-3.3349938224999995,-1.5327840684999994,,,['icsd-402533']
20.0,3.0,MgSnO3,228.0837393763739,5.562604010325774,Orthorhombic,Pnma,62.0,mmm,0.1,1.16.2,mp-769348,-6.5201174019999995,-2.4301337942499996,,,
5.0,3.0,MgSnO3,65.21888912494153,4.863389810713269,Cubic,Pm-3m,221.0,m-3m,0.1,1.16.2,mp-1016820,-5.9632531239999995,-1.8732695162500002,,,
10.0,3.0,MgSnO3,113.11787770386657,5.608041580600432,Trigonal,R-3,148.0,-3,0.1,1.16.2,mp-1176491,-6.589533251000001,-2.4995496432500004,,,
20.0,3.0,MgSbO3,244.89317614820442,5.263511708376719,Monoclinic,P2_1/c,14.0,2/m,0.1,1.16.2,mp-1347225,-6.3341886574999995,-2.22031917275,,,
20.0,3.0,MgSbO3,245.4308162618618,5.2519814731917895,Monoclinic,P2_1/m,11.0,2/m,0.1,1.16.2,mp-1342178,-6.294361626500001,-2.1804921417500003,,,
15.0,3.0,CsMgH3,249.5850962832938,3.198211018130811,Trigonal,R-3m,166.0,-3m,0.1,1.16.2,mp-23751,-2.8617344179999997,-0.32696230658620684,,,"['icsd-94940', 'icsd-162260']"
30.0,3.0,CsMgH3,519.1655843728438,3.075033588209561,Orthorhombic,Pmmn,59.0,mmm,0.1,1.16.2,mp-571020,-2.8658380649999997,-0.3310659535862068,,,"['icsd-96230', 'icsd-159177']"
5.0,3.0,CsMgO3,79.08622793913015,4.308676645275569,Cubic,Pm-3m,221.0,m-3m,0.1,1.16.2,mp-984756,-4.796850304,-1.329700592836207,,,
5.0,3.0,CsMgF3,76.89070343345318,4.626006179218942,Cubic,Pm-3m,221.0,m-3m,0.1,1.16.2,mp-8401,-5.0720261319999995,-3.426002267086207,,,"['icsd-290359', 'icsd-290360', 'icsd-49584']"
10.0,3.0,CsMgCl3,284.72980335970163,3.0742645587359925,Hexagonal,P6_3/mmc,194.0,6/mmm,0.1,1.16.2,mp-23004,-3.9305257739999995,-2.3222672935862065,10.490509169999997,2.6206048166666664,"['icsd-22086', 'icsd-54167']"
10.0,3.0,CsMgBr3,329.7912236044661,3.9971059907955877,Hexagonal,P6_3/mmc,194.0,6/mmm,0.1,1.16.2,mp-29750,-3.4630993230000002,-2.032145840586207,10.88935011000173,2.9691245333333325,['icsd-87260']
10.0,3.0,CsMgI3,419.41990241709254,4.25942394432683,Hexagonal,P6_3/mmc,194.0,6/mmm,0.1,1.16.2,mp-29751,-2.910670538,-1.5275142435862068,13.280724860014478,3.5058207633333343,['icsd-87262']
5.0,3.0,LaMgO3,61.43297867320221,5.708989785524037,Cubic,Pm-3m,221.0,m-3m,0.1,1.16.2,mp-1184964,-7.22541901,-2.9501483522500003,,,
30.0,3.0,LaMgS3,746.9361231107164,3.460158669773304,Trigonal,R-3,148.0,-3,0.1,1.16.2,mp-1232358,-5.431638016666667,-1.642510665541667,,,
10.0,3.0,LaMgS3,234.0419121863511,3.680989554398753,Monoclinic,C2/m,12.0,2/m,0.1,1.16.2,mp-1238931,-5.497116522000001,-1.7079891708750004,,,
20.0,3.0,LaMgS3,570.6858006747453,3.01919491611978,Monoclinic,C2/m,12.0,2/m,0.1,1.16.2,mp-1232327,-5.375916514,-1.5867891628750002,,,
10.0,3.0,LaMgSe3,306.9393941631012,4.328970918971222,Monoclinic,C2/m,12.0,2/m,0.1,1.16.2,mp-1232143,-4.841762803,-1.4369584854062503,,,
30.0,3.0,CeMgS3,712.4397060768083,3.6446288354487297,Trigonal,R-3,148.0,-3,0.1,1.16.2,mp-1232253,-5.818848360333334,-1.830304599208334,,,
10.0,3.0,CeMgS3,249.9385895264058,3.4629550418848347,Monoclinic,C2/m,12.0,2/m,0.1,1.16.2,mp-1232197,-5.633451321,-1.644907559875,,,
10.0,3.0,CeMgSe3,286.5655637034556,4.650775057223743,Monoclinic,C2/m,12.0,2/m,0.1,1.16.2,mp-1232259,-5.093871503,-1.4896507754062498,,,
30.0,3.0,CeMgSe3,833.3870409532967,4.797597912274163,Trigonal,R-3,148.0,-3,0.1,1.16.2,mp-1232360,-5.261986755666667,-1.6577660280729172,,,
30.0,3.0,PrMgS3,733.9216165750518,3.548697343120511,Trigonal,R-3,148.0,-3,0.1,1.16.2,mp-1232362,-5.341493958333333,-1.583386877208334,,,
20.0,3.0,PrMgS3,567.9307150899408,3.057257539341618,Monoclinic,C2/m,12.0,2/m,0.1,1.16.2,mp-1232298,-5.2816790065,-1.5235719253749997,,,
10.0,3.0,PrMgS3,263.6757789916879,3.2925103457969365,Monoclinic,C2/m,12.0,2/m,0.1,1.16.2,mp-1237949,-5.229823239,-1.4717161578750002,,,
30.0,3.0,PrMgSe3,857.3345140211349,4.672789041836666,Trigonal,R-3,148.0,-3,0.1,1.16.2,mp-1232200,-4.844908553666667,-1.471124506072917,,,
10.0,3.0,PrMgSe3,302.55383842922765,4.413697457511545,Monoclinic,C2/m,12.0,2/m,0.1,1.16.2,mp-1232136,-4.748535748,-1.3747517004062495,,,
5.0,3.0,NdMgO3,59.72154240182355,6.020972497082238,Cubic,Pm-3m,221.0,m-3m,0.1,1.16.2,mp-975521,-7.081664141999999,-2.83996541875,,,
20.0,3.0,NdMgS3,554.5831204551301,3.1707739911668313,Monoclinic,C2/m,12.0,2/m,0.1,1.16.2,mp-1232174,-5.283548328,-1.5279929113750002,,,
10.0,3.0,NdMgSe3,299.5298954630232,4.4952265690457445,Monoclinic,C2/m,12.0,2/m,0.1,1.16.2,mp-1232282,-4.750148150999999,-1.3789157679062498,,,
30.0,3.0,NdMgSe3,842.4091085151018,4.795014906767494,Trigonal,R-3,148.0,-3,0.1,1.16.2,mp-1232357,-4.844966532,-1.4737341489062497,,,
5.0,3.0,PmMgO3,59.091597506918504,6.1064596003678115,Cubic,Pm-3m,221.0,m-3m,0.1,1.16.2,mp-1186600,-7.065885797999999,-2.827708096749999,,,
10.0,3.0,PmMgS3,273.0094374402526,3.229728073255958,Monoclinic,C2/m,12.0,2/m,0.1,1.16.2,mp-1232288,-5.29014272,-1.5381083253749999,,,
20.0,3.0,PmMgSe3,554.4024139692455,4.866400605566893,Monoclinic,C2/m,12.0,2/m,0.1,1.16.2,mp-1232152,-4.7886948835,-1.4209835224062495,,,
30.0,3.0,PmMgSe3,832.9112338615447,4.858760693908766,Trigonal,R-3,148.0,-3,0.1,1.16.2,mp-1232203,-4.847646200666667,-1.4799348395729168,,,
10.0,3.0,PmMgSe3,296.67648173797636,4.546946605377535,Monoclinic,C2/m,12.0,2/m,0.1,1.16.2,mp-1237948,-4.7539764,-1.3862650389062494,,,
30.0,3.0,SmMgS3,722.6671575165008,3.7342802165657254,Trigonal,R-3,148.0,-3,0.1,1.16.2,mp-1232277,-5.354491920333333,-1.6088487632083337,,,
10.0,3.0,SmMgS3,271.2697787767995,3.3160613291121472,Monoclinic,C2/m,12.0,2/m,0.1,1.16.2,mp-1232244,-5.28642254,-1.5407793828750003,,,
30.0,3.0,SmMgSe3,824.4617063966383,4.973328984440144,Trigonal,R-3,148.0,-3,0.1,1.16.2,mp-1232201,-4.848789734666667,-1.487469611072917,,,
20.0,3.0,SmMgSe3,560.5813376025875,4.876270430881663,Monoclinic,C2/m,12.0,2/m,0.1,1.16.2,mp-1232154,-4.7896251025,-1.4283049789062496,,,
10.0,3.0,SmMgSe3,297.06455386314633,4.600929604537901,Monoclinic,C2/m,12.0,2/m,0.1,1.16.2,mp-1237966,-4.747523801,-1.3862036774062496,,,
5.0,3.0,EuMgO3,60.3603799640011,6.169683609995452,Cubic,Pm-3m,221.0,m-3m,0.1,1.16.2,mp-972931,-7.882311952,-2.542842355250001,,,
5.0,3.0,TbMgO3,57.35423346911667,6.694606786001649,Cubic,Pm-3m,221.0,m-3m,0.1,1.16.2,mp-1187347,-6.979735644,-2.7647931872500005,,,
30.0,3.0,TbMgS3,704.8662119331294,3.949657696891258,Trigonal,R-3,148.0,-3,0.1,1.16.2,mp-1232232,-5.360508802,-1.631709651875,,,
10.0,3.0,TbMgS3,262.68976312505646,3.5326592430058827,Monoclinic,C2/m,12.0,2/m,0.1,1.16.2,mp-1232160,-5.283688209,-1.5548890588750006,,,
20.0,3.0,TbMgSe3,552.9745037860037,5.046233731803071,Monoclinic,C2/m,12.0,2/m,0.1,1.16.2,mp-1232315,-4.777536038,-1.4330599214062503,,,