nsites,nelements,formula_pretty,volume,density,crystal_system,symbol,number,point_group,symprec,version,material_id,energy_per_atom,formation_energy_per_atom,e_total,e_electronic,icsd
10.0,3.0,CaSnS3,221.28021666936272,3.8269054431696135,Orthorhombic,Cmcm,63.0,mmm,0.1,1.16.2,mp-866850,-4.984162966,-1.2992586988750006,,,
5.0,3.0,CaSnS3,134.3291361459511,3.1520282566160907,Tetragonal,P4mm,99.0,4mm,0.1,1.16.2,mp-1100325,-4.847989588,-1.1630853208750005,,,
10.0,3.0,CaSnS3,239.90321752509698,3.5298337153362582,Orthorhombic,Cmcm,63.0,mmm,0.1,1.16.2,mp-1100329,-4.912291366,-1.2273870988750004,,,
10.0,3.0,CaSnS3,247.74747655944734,3.4180710027718098,Hexagonal,P6_3/mmc,194.0,6/mmm,0.1,1.16.2,mp-866833,-4.683644213,-0.9987399458750005,,,
20.0,3.0,CaSbO3,273.7490171218,5.09139665742592,Orthorhombic,Pnma,62.0,mmm,0.1,1.16.2,mp-1377563,-6.624212062000001,-2.429278611250001,,,
20.0,3.0,CaSbO3,276.59592149863045,5.038992705300844,Monoclinic,P2_1/m,11.0,2/m,0.1,1.16.2,mp-1340624,-6.632514745500001,-2.437581294750001,,,
5.0,3.0,CsCaH3,98.68709087228876,2.961551996439553,Cubic,Pm-3m,221.0,m-3m,0.1,1.16.2,mp-644203,-3.09976169,-0.4839256125862065,9.460530157274446,3.418576656615245,"['icsd-168718', 'icsd-261359', 'icsd-88051']"
5.0,3.0,CsCaO3,102.8247443617045,3.568680556996517,Cubic,Pm-3m,221.0,m-3m,0.1,1.16.2,mp-984240,-5.034596532,-1.4863828548362066,,,
5.0,3.0,CsCaF3,92.37795928990893,4.133979088092322,Cubic,Pm-3m,221.0,m-3m,0.1,1.16.2,mp-7104,-5.4499464,-3.722858569086206,9.201081980000005,2.308064279999997,"['icsd-290449', 'icsd-290341', 'icsd-290342', 'icsd-247961', 'icsd-290340', 'icsd-45309', 'icsd-290448']"
10.0,3.0,CsCaCl3,317.0413345134333,2.926173995902905,Tetragonal,I4/mcm,140.0,4/mmm,0.1,1.16.2,mp-1206863,-4.331365133,-2.642042686586207,,,
5.0,3.0,CsCaCl3,159.04216959735564,2.916579014950094,Cubic,Pm-3m,221.0,m-3m,0.1,1.16.2,mp-1097916,-4.331671878,-2.6423494315862066,,,
5.0,3.0,CsCaCl3,163.02207990762003,2.8453756362490106,Tetragonal,P4mm,99.0,4mm,0.1,1.16.2,mp-1096927,-4.3313803879999995,-2.6420579415862067,,,
5.0,3.0,CsCaBr3,186.03893347623892,3.683620990955734,Cubic,Pm-3m,221.0,m-3m,0.1,1.16.2,mp-30056,-3.8689126700000003,-2.356895221586207,19.81658875333333,2.9725775399999996,['icsd-77242']
20.0,3.0,CsCaI3,925.5257116270685,3.9736779159702156,Orthorhombic,Pnma,62.0,mmm,0.1,1.16.2,mp-1213688,-3.3278869589999998,-1.8636666985862067,,,
5.0,3.0,CsCaI3,242.2223781078566,3.795831241609599,Monoclinic,Cm,8.0,m,0.1,1.16.2,mp-998333,-3.317324766,-1.853104505586207,,,
20.0,3.0,CsCaI3,901.9107359491211,4.077721812552602,Orthorhombic,Pnma,62.0,mmm,0.1,1.16.2,mp-998428,-3.3381274475,-1.8739071870862065,7.624504849999998,3.3571480133333336,
5.0,3.0,BaCaO3,88.98091885869187,4.206416658059623,Cubic,Pm-3m,221.0,m-3m,0.1,1.16.2,mp-1183285,-6.033683868,-2.28075567725,,,
5.0,3.0,CaLaO3,91.41240612908155,4.123203254325017,Cubic,Pm-3m,221.0,m-3m,0.1,1.16.2,mp-1183562,-7.024558736,-2.6682241122500003,,,
20.0,3.0,CaCeO3,301.40837780939603,5.028686535488704,Orthorhombic,Pnma,62.0,mmm,0.1,1.16.2,mp-756365,-8.176925261,-3.6211742272499996,25.093801616666664,5.298401476666666,
20.0,3.0,CaPrO3,326.0225185540034,4.665157857585113,Orthorhombic,Pnma,62.0,mmm,0.1,1.16.2,mp-756708,-7.3414179785,-3.01610362475,,,
5.0,3.0,CaHoO3,80.13702098788315,5.242610785694643,Cubic,Pm-3m,221.0,m-3m,0.1,1.16.2,mp-1183539,-7.185042323999999,-2.8994273472499996,,,
5.0,3.0,CaTmO3,77.96984479230309,5.473601075707323,Cubic,Pm-3m,221.0,m-3m,0.1,1.16.2,mp-1183538,-7.233149296000001,-2.9688490085833337,,,
20.0,3.0,CaHfO3,252.29133819395093,7.017975204441195,Orthorhombic,Pnma,62.0,mmm,0.1,1.16.2,mp-754853,-9.182272448,-3.8217014392500004,31.849530636666668,4.3596693533333335,
5.0,3.0,CaHfO3,69.17836138914774,6.398584471307642,Cubic,Pm-3m,221.0,m-3m,0.1,1.16.2,mp-1016873,-9.02795571,-3.6673847012500005,,,
20.0,3.0,CaHfS3,441.8930364734302,4.7312468410136885,Orthorhombic,Pnma,62.0,mmm,0.1,1.16.2,mp-1190098,-6.944673754,-2.0702460518750003,,,['icsd-619354']
10.0,3.0,CaWN3,145.95522033096265,6.051179304803491,Monoclinic,C2/m,12.0,2/m,0.1,1.16.2,mp-989616,-8.850397692,-0.8557547149999991,19.305180810000003,8.821444833333336,
5.0,3.0,CaWO3,69.25007416783295,6.520245333558877,Monoclinic,Cm,8.0,m,0.1,1.16.2,mp-1431390,-8.406033696,-2.44527444725,,,
20.0,3.0,CaWO3,255.79037973460856,7.060898434255337,Orthorhombic,Pnma,62.0,mmm,0.1,1.16.2,mp-1342410,-8.5729237665,-2.61216451775,,,
20.0,3.0,CaReN3,312.5301702485125,5.702247561747393,Monoclinic,C2/c,15.0,2/m,0.1,1.16.2,mp-989606,-8.628822699999999,-0.736900331999999,12.401387056666666,6.346368646666666,
5.0,3.0,CaOsO3,61.7311750736624,7.486303590131466,Cubic,Pm-3m,221.0,m-3m,0.1,1.16.2,mp-1016900,-7.591910918000001,-1.977304229250001,,,
20.0,3.0,CaOsO3,235.8143206324524,7.839020401094235,Orthorhombic,Pnma,62.0,mmm,0.1,1.16.2,mp-1213970,-7.761224283500001,-2.1466175947500004,,,
5.0,3.0,CaIrO3,61.792674200619054,7.532249004003523,Cubic,Pm-3m,221.0,m-3m,0.1,1.16.2,mp-1016872,-6.932980098,-1.7961600592500004,,,
10.0,3.0,CaIrO3,128.73544915681154,7.230919094170888,Orthorhombic,Cmcm,63.0,mmm,0.1,1.16.2,mp-1079054,-6.91619666,-1.7793766212500004,,,['icsd-159026']
10.0,3.0,CaIrO3,113.08204138316107,8.231860744806733,Orthorhombic,Cmcm,63.0,mmm,0.1,1.16.2,mp-20198,-6.585585473,-1.4487654342500007,,,['icsd-159026']
20.0,3.0,CaIrO3,228.6900073487555,8.140938278820864,Orthorhombic,Pnma,62.0,mmm,0.1,1.16.2,mp-555735,-7.215037712999999,-2.07821767425,,,"['icsd-182245', 'icsd-159433']"
10.0,3.0,CaIrO3,114.21872186793517,8.14993901333421,Orthorhombic,Cmcm,63.0,mmm,0.1,1.16.2,mp-4243,-7.239532932,-2.1027128932500005,,,"['icsd-159031', 'icsd-159035', 'icsd-420479', 'icsd-159034', 'icsd-159432', 'icsd-420478', 'icsd-159029', 'icsd-159037', 'icsd-159038', 'icsd-160816', 'icsd-159033', 'icsd-182246', 'icsd-159030', 'icsd-25524', 'icsd-159036', 'icsd-180015', 'icsd-159028', 'icsd-159027']"
10.0,3.0,CaPtO3,114.94236831033714,8.18146661006258,Orthorhombic,Cmcm,63.0,mmm,0.1,1.16.2,mp-4784,-6.575624937000001,-1.9922650702500007,14.044105216669335,7.308617959999999,"['icsd-173278', 'icsd-160328']"
10.0,3.0,CaTlF3,174.91206828325397,5.723793858077697,Trigonal,R3c,161.0,3m,0.1,1.16.2,mp-998615,-5.3305470029999995,-3.3100110171666666,29.844009116619244,2.813987416666665,
5.0,3.0,CaTlF3,91.74087869651437,5.456458649449334,Monoclinic,Cm,8.0,m,0.1,1.16.2,mp-1097061,-5.32372567,-3.3031896841666666,,,
10.0,3.0,CaTlCl3,285.1063935878464,4.086550330740566,Orthorhombic,Cmcm,63.0,mmm,0.1,1.16.2,mp-998787,-4.210446287,-2.2276756856666666,14.123726636700559,3.3313938530043927,
5.0,3.0,CaTlCl3,157.40066040659985,3.7010696905684988,Monoclinic,Cm,8.0,m,0.1,1.16.2,mp-998151,-4.17169119,-2.1889205886666665,,,
10.0,3.0,CaTlBr3,328.6284841078922,4.892994481821508,Orthorhombic,Cmcm,63.0,mmm,0.1,1.16.2,mp-1205521,-3.7733005040000003,-1.9678349006666669,15.695708300000002,3.777289543333334,
10.0,3.0,CaTlI3,404.79414615376163,5.129160286873277,Orthorhombic,Cmcm,63.0,mmm,0.1,1.16.2,mp-1206188,-3.256533485,-1.4988650696666668,,,
20.0,3.0,CaPbO3,275.27296614002546,7.1248211898553215,Orthorhombic,Pnma,62.0,mmm,0.1,1.16.2,mp-20079,-6.2856399865,-2.1739773697499998,,,['icsd-87825']
20.0,3.0,CaBiO3,289.41061862777906,6.817636362206685,Orthorhombic,Pnma,62.0,mmm,0.1,1.16.2,mp-1378965,-6.396315561,-2.25908453225,,,
20.0,3.0,CaBiO3,289.0372280681903,6.826443674238326,Monoclinic,P2_1/c,14.0,2/m,0.1,1.16.2,mp-755893,-6.4121261725,-2.27489514375,,,
20.0,3.0,CaBiO3,307.5353457063267,6.415836048483473,Orthorhombic,Pnma,62.0,mmm,0.1,1.16.2,mp-1178493,-6.312575148500001,-2.17534411975,,,
10.0,3.0,CaBiO3,156.56459992332617,6.3012212151781295,Trigonal,R-3,148.0,-3,0.1,1.16.2,mp-867749,-6.391285753,-2.2540547242499995,,,
5.0,2.0,Sc2O3,56.38008870523313,4.061805999011981,Trigonal,P-3m1,164.0,-3m,0.1,1.16.2,mp-13060,-9.338607112,-3.8376062432499993,,,['icsd-160203']
10.0,2.0,Sc2O3,123.9812369138179,3.6941877372449516,Trigonal,R-3,148.0,-3,0.1,1.16.2,mp-754455,-9.384176468,-3.8831755992499994,,,
40.0,2.0,Sc2O3,479.72910891946253,3.818904932303188,Cubic,Ia-3,206.0,m-3,0.1,1.16.2,mp-216,-9.47049688575,-3.969496017,,,"['icsd-647392', 'icsd-41264', 'icsd-26942', 'icsd-169172', 'icsd-184529', 'icsd-24200', 'icsd-186676', 'icsd-647397', 'icsd-27948', 'icsd-647398', 'icsd-26841', 'icsd-202905']"
15.0,2.0,Sc2O3,167.39640147711683,4.1041201693761975,Monoclinic,C2/m,12.0,2/m,0.1,1.16.2,mp-558748,-9.396747449333333,-3.8957465805833333,,,['icsd-160218']
10.0,2.0,Sc2O3,117.69023564964562,3.8916564532927445,Trigonal,R-3c,167.0,-3m,0.1,1.16.2,mp-755313,-9.431764759,-3.930763890249999,,,
40.0,2.0,Sc2O3,506.46368073293684,3.617317351504225,Orthorhombic,Pna2_1,33.0,mm2,0.1,1.16.2,mp-775837,-9.388716904999999,-3.887716036249999,20.93774866,4.524668356666667,
20.0,2.0,Sc2S3,428.6277174366303,2.883972633977312,Orthorhombic,Fddd,70.0,mmm,0.1,1.16.2,mp-401,-7.2294981135,-2.2146405513749996,22.76201019009454,7.992648596652806,"['icsd-650834', 'icsd-654308', 'icsd-600040', 'icsd-22236']"
20.0,2.0,Sc2S3,399.73057971565817,3.092459446386907,Orthorhombic,Pnma,62.0,mmm,0.1,1.16.2,mp-1105836,-7.1364928145,-2.1216352523750004,,,
10.0,2.0,Sc2S3,213.5916809677279,2.8937236732505855,Monoclinic,C2/m,12.0,2/m,0.1,1.16.2,mp-684969,-7.225458196,-2.210600633874999,24.029806919784516,8.082939284842197,
10.0,2.0,Sc2Se3,243.0247353264645,4.465805422386391,Monoclinic,C2/c,15.0,2/m,0.1,1.16.2,mp-684690,-6.586238562999999,-1.9557040344062486,28.497170245133116,10.459823507726442,
5.0,2.0,Sc2Se3,122.92980230542256,4.414312723364191,Orthorhombic,Immm,71.0,mmm,0.1,1.16.2,mp-1219395,-6.592210588,-1.96167605940625,,,
20.0,2.0,Sc2Se3,487.1980463863951,4.455277227996905,Orthorhombic,Fddd,70.0,mmm,0.1,1.16.2,mp-1205354,-6.6199942845,-1.989459755906249,25.55843348,9.673330023333335,['icsd-651804']
10.0,2.0,Sc2Se3,244.72533384562328,4.43477250082972,Triclinic,P1,1.0,1,0.1,1.16.2,mp-723973,-0.875213818,3.7553207105937503,,,
10.0,3.0,ScTiO3,113.47907294930623,4.121270147889125,Trigonal,R-3,148.0,-3,0.1,1.16.2,mp-1101375,-9.381252957,-3.5676475059166664,,,
20.0,3.0,ScTiO3,214.54572810928386,4.359703825171345,Orthorhombic,Pna2_1,33.0,mm2,0.1,1.16.2,mp-754092,-9.353816591000001,-3.540211139916667,,,
20.0,3.0,ScVO3,215.7754359190552,4.429499293477538,Orthorhombic,Pnma,62.0,mmm,0.1,1.16.2,mp-756546,-9.254299815500001,-3.203011553750001,,,
5.0,3.0,ScVO3,54.284997039030245,4.401663411098977,Cubic,Pm-3m,221.0,m-3m,0.1,1.16.2,mp-972978,-8.577903116,-2.5266148542500004,,,
20.0,3.0,ScCrO3,207.8888721409463,4.6312337405873905,Orthorhombic,Pnma,62.0,mmm,0.1,1.16.2,mp-18961,-9.296693205,-3.1315766632500006,,,"['icsd-85141', 'icsd-185585']"
30.0,3.0,ScMnO3,332.2624241651375,4.434700161343278,Hexagonal,P6_3cm,185.0,6mm,0.1,1.16.2,mp-18954,-9.051214285666667,-2.9843041795028737,,,"['icsd-79483', 'icsd-50694', 'icsd-79253']"
20.0,3.0,ScMnO3,218.73503434359637,4.49092583781479,Monoclinic,P2_1/c,14.0,2/m,0.1,1.16.2,mp-1105811,-9.009025804,-2.9421156978362064,,,['icsd-251022']
30.0,3.0,ScFeO3,342.91604718674466,4.323275167408495,Hexagonal,P6_3cm,185.0,6mm,0.1,1.16.2,mp-771123,-8.708788777333332,-2.7802774875833327,,,
20.0,3.0,ScFeO3,212.22287513266605,4.657117917131759,Orthorhombic,Pnma,62.0,mmm,0.1,1.16.2,mp-769734,-8.6832404825,-2.7547291927499997,,,
20.0,3.0,ScFeO3,201.36983821600379,4.908118132097733,Monoclinic,P2_1/c,14.0,2/m,0.1,1.16.2,mp-756419,-8.629074974,-2.7005636842499996,,,
10.0,3.0,ScFeO3,117.43344650570573,4.208115250017525,Hexagonal,P6_3/mmc,194.0,6/mmm,0.1,1.16.2,mp-754342,-8.694239036,-2.7657277462500005,,,
5.0,3.0,ScCoO3,49.10300326279377,5.136443602936916,Cubic,Pm-3m,221.0,m-3m,0.1,1.16.2,mp-1186980,-7.7020651319999995,-2.04589452525,,,
20.0,3.0,ScCoO3,202.46357062059715,4.9829172965995125,Monoclinic,P2_1/c,14.0,2/m,0.1,1.16.2,mp-1643785,-8.1920974155,-2.5359268087499998,,,
20.0,3.0,ScCoO3,207.5436412174167,4.860949832328608,Orthorhombic,Pnma,62.0,mmm,0.1,1.16.2,mp-754124,-8.191829626499999,-2.5356590197499997,,,
5.0,3.0,ScCuO3,51.848925970517726,5.012149143668761,Cubic,Pm-3m,221.0,m-3m,0.1,1.16.2,mp-973068,-6.892613322,-1.8382649402499993,,,
10.0,3.0,ScGaO3,110.7344127232281,4.878911497780485,Hexagonal,P6_3/mmc,194.0,6/mmm,0.1,1.16.2,mp-754165,-7.942142936000001,-3.10201668375,,,
30.0,3.0,ScGaO3,328.43508193907246,4.934887554450265,Hexagonal,P6_3cm,185.0,6mm,0.1,1.16.2,mp-769079,-7.955223722666667,-3.1150974704166665,16.16484919999922,4.543872983333334,
20.0,3.0,ScGaO3,206.95704441515204,5.221019665815953,Orthorhombic,Pnma,62.0,mmm,0.1,1.16.2,mp-754239,-7.8832921735,-3.0431659212499995,,,
5.0,3.0,ScAsO3,61.25659245178591,4.550762080484664,Cubic,Pm-3m,221.0,m-3m,0.1,1.16.2,mp-973156,-6.919006668,-1.7526759392499998,,,
10.0,3.0,RbScCl3,273.09077017976364,2.8795330088430227,Hexagonal,P6_3/mmc,194.0,6/mmm,0.1,1.16.2,mp-1206320,-4.874307268,-2.3025846365,,,
10.0,3.0,RbScBr3,319.4504706016914,3.848013174387555,Hexagonal,P6_3/mmc,194.0,6/mmm,0.1,1.16.2,mp-1206561,-4.418660071,-2.0242424375,,,
5.0,3.0,SrScO3,70.95413907681151,4.225974288378024,Cubic,Pm-3m,221.0,m-3m,0.1,1.16.2,mp-1187191,-7.7603096140000005,-3.1879038755833333,,,
30.0,3.0,YScO3,402.56854913574466,4.50088173355385,Hexagonal,P6_3cm,185.0,6mm,0.1,1.16.2,mp-769007,-9.478454808666667,-3.9506535382500005,,,
20.0,3.0,YScO3,251.95223031798207,4.794330594656989,Orthorhombic,Pnma,62.0,mmm,0.1,1.16.2,mp-755165,-9.469694941,-3.941893670583333,,,['icsd-237285']
10.0,3.0,YScO3,138.94105351591026,4.3469595761602715,Hexagonal,P6_3/mmc,194.0,6/mmm,0.1,1.16.2,mp-768479,-9.467514688,-3.939713417583333,21.900895529626876,4.265561999332658,
20.0,3.0,YScS3,426.59561875393587,3.5820174801827944,Orthorhombic,Pnma,62.0,mmm,0.1,1.16.2,mp-7792,-7.328090181,-2.2864322172083336,22.480156053333328,8.095303289999999,
20.0,3.0,ScMoN3,311.7739550831921,3.896915427096869,Triclinic,P-1,2.0,-1,0.1,1.16.2,mp-1246879,-9.3758617735,-0.9383409755000003,,,
20.0,3.0,ScRhO3,215.03220185571337,6.049931768142321,Orthorhombic,Pnma,62.0,mmm,0.1,1.16.2,mp-1188449,-8.189887848,-2.4825192262499995,,,
40.0,3.0,ScRhO3,432.8519261026267,6.010970822719775,Monoclinic,P2_1/c,14.0,2/m,0.1,1.16.2,mp-1196890,-8.21641368225,-2.5090450605,,,"['icsd-237353', 'icsd-237348']"
5.0,3.0,ScPdO3,67.8551067576614,4.879050636926505,Cubic,Pm-3m,221.0,m-3m,0.1,1.16.2,mp-973123,-6.811770677999999,-1.5412872682499994,,,
10.0,3.0,ScAgO3,132.01168072464614,5.0521786055660085,Orthorhombic,Cmmm,65.0,mmm,0.1,1.16.2,mp-776150,-6.914838808000001,-2.113820559583334,,,
10.0,3.0,ScInO3,132.6643819656345,5.201301265856924,Hexagonal,P6_3/mmc,194.0,6/mmm,0.1,1.16.2,mp-768358,-7.694859255,-2.91001546125,,,
5.0,3.0,ScSnO3,69.29637433044239,5.072076719298021,Cubic,Pm-3m,221.0,m-3m,0.1,1.16.2,mp-981376,-7.307863331999999,-2.27144191325,,,
10.0,3.0,CsScCl3,292.71577011847864,3.2246914307909673,Hexagonal,P6_3/mmc,194.0,6/mmm,0.1,1.16.2,mp-27359,-4.892448718,-2.337752426586207,,,['icsd-10474']
5.0,3.0,CsScBr3,168.38626429989753,4.117894572995465,Monoclinic,Pm,6.0,m,0.1,1.16.2,mp-998308,-4.35699825,-1.979606956586207,,,
20.0,3.0,CsScBr3,675.3379230670437,4.106962516059928,Orthorhombic,Pnma,62.0,mmm,0.1,1.16.2,mp-998435,-4.3707592045,-1.9933679110862066,,,
10.0,3.0,CsScBr3,337.3644970365881,4.110668964981975,Hexagonal,P6_3/mmc,194.0,6/mmm,0.1,1.16.2,mp-1213644,-4.440707495,-2.0633162015862068,,,
10.0,3.0,CsScI3,421.15731079320483,4.404697294373442,Hexagonal,P6_3/mmc,194.0,6/mmm,0.1,1.16.2,mp-1206489,-3.907052393,-1.5774582875862067,,,
5.0,3.0,BaScO3,75.13526132667413,5.089365179865764,Cubic,Pm-3m,221.0,m-3m,0.1,1.16.2,mp-1183289,-7.826176444,-3.2078744082499995,,,
20.0,3.0,LaScO3,267.3212593398151,5.761036661691382,Orthorhombic,Pnma,62.0,mmm,0.1,1.16.2,mp-31116,-9.173035223,-3.9513267542499997,34.39522403333333,5.009390023333334,"['icsd-99538', 'icsd-237284']"
5.0,3.0,LaScO3,67.8627929880572,5.673387093636159,Cubic,Pm-3m,221.0,m-3m,0.1,1.16.2,mp-1096800,-8.9689534,-3.7472449312499996,,,
20.0,3.0,LaScS3,458.30319977671337,4.058837585146462,Orthorhombic,Pnma,62.0,mmm,0.1,1.16.2,mp-1190131,-7.1151509410000005,-2.3795857788750006,24.36903741333333,8.002332946666668,
20.0,3.0,CeScO3,263.33288447133674,5.8788256090357605,Orthorhombic,Pnma,62.0,mmm,0.1,1.16.2,mp-777413,-9.277669204999999,-3.85654432625,,,['icsd-195596']
20.0,3.0,CeScS3,450.19260529870337,4.149821121189255,Orthorhombic,Pnma,62.0,mmm,0.1,1.16.2,mp-20953,-7.2115740465,-2.2765924743750006,,,"['icsd-23294', 'icsd-400014']"
20.0,3.0,PrScO3,263.56275255678537,5.893649056518227,Orthorhombic,Pnma,62.0,mmm,0.1,1.16.2,mp-559756,-9.072905108499999,-3.8822169097499994,,,"['icsd-99539', 'icsd-195600', 'icsd-710019']"
20.0,3.0,PrScS3,451.3261716177129,4.1510489816375316,Orthorhombic,Pnma,62.0,mmm,0.1,1.16.2,mp-1189962,-7.007649549,-2.303104656875,,,
20.0,3.0,NdScO3,260.34020981921844,6.051672320539907,Orthorhombic,Pnma,62.0,mmm,0.1,1.16.2,mp-31117,-9.0853638885,-3.897227354249999,,,['icsd-99540']
20.0,3.0,NdScS3,446.28172692860926,4.247595642942787,Orthorhombic,Pnma,62.0,mmm,0.1,1.16.2,mp-1105614,-7.004041709000001,-2.3020484813750004,,,
20.0,3.0,SmScO3,254.95794113861217,6.338811595774986,Orthorhombic,Pnma,62.0,mmm,0.1,1.16.2,mp-31118,-9.1002521105,-3.92202783575,,,['icsd-99541']
20.0,3.0,SmScS3,438.45158688597496,4.416134161166416,Orthorhombic,Pnma,62.0,mmm,0.1,1.16.2,mp-1188840,-6.9904757905,-2.2983948223749997,,,
20.0,3.0,EuScO3,261.33230177110755,6.224964772248111,Orthorhombic,Pnma,62.0,mmm,0.1,1.16.2,mp-22487,-9.818837689999999,-3.5329302822499997,,,"['icsd-4128', 'icsd-99542']"
20.0,3.0,GdScO3,251.66745686793627,6.603534803754681,Orthorhombic,Pnma,62.0,mmm,0.1,1.16.2,mp-5690,-10.9708225165,-3.921091020749999,,,"['icsd-65513', 'icsd-99543']"
20.0,3.0,GdScS3,431.9132118420603,4.588943873902729,Orthorhombic,Pnma,62.0,mmm,0.1,1.16.2,mp-510490,-8.861792824,-2.2982046348750003,,,['icsd-173844']
20.0,3.0,TbScO3,247.2443722811714,6.766676755732844,Orthorhombic,Pnma,62.0,mmm,0.1,1.16.2,mp-31119,-9.119895555,-3.958515287249999,,,['icsd-99544']
20.0,3.0,TbScS3,427.4692108399353,4.662683003823447,Orthorhombic,Pnma,62.0,mmm,0.1,1.16.2,mp-1188262,-6.9667621835,-2.2915252223750002,,,
20.0,3.0,DyScO3,250.40624850722793,6.776053476754478,Orthorhombic,Pnma,62.0,mmm,0.1,1.16.2,mp-31120,-9.1200012305,-3.9641368147500002,,,['icsd-99545']
20.0,3.0,DyScS3,425.38287482371675,4.7413681351763355,Orthorhombic,Pnma,62.0,mmm,0.1,1.16.2,mp-1184176,-6.955855601500001,-2.286134492375001,,,
20.0,3.0,HoScO3,248.61433611579346,6.889822697987972,Orthorhombic,Pnma,62.0,mmm,0.1,1.16.2,mp-31121,-9.11987672,-3.9688878982500007,,,['icsd-99546']
20.0,3.0,ErScO3,246.3404099624588,7.016210424971044,Orthorhombic,Pnma,62.0,mmm,0.1,1.16.2,mp-1212985,-9.120838515500001,-3.97278770575,,,
5.0,3.0,TmScO3,64.08062583322518,6.7863848723812135,Cubic,Pm-3m,221.0,m-3m,0.1,1.16.2,mp-1187557,-8.53251846,-3.4028443275833333,,,
20.0,3.0,TmScO3,245.33436393081755,7.090336352390517,Orthorhombic,Pnma,62.0,mmm,0.1,1.16.2,mp-1207696,-9.1118436155,-3.982169483083333,,,
5.0,3.0,YbScO3,66.36588072624986,6.655432123073923,Cubic,Pm-3m,221.0,m-3m,0.1,1.16.2,mp-1187493,-7.705651405999999,-3.1632227022499997,,,
30.0,3.0,LuScO3,391.5342710979174,6.817693970880811,Hexagonal,P6_3cm,185.0,6mm,0.1,1.16.2,mp-772180,-9.145822131333334,-4.007124979583334,,,
20.0,3.0,LuScO3,243.07288147061354,7.321153565980165,Orthorhombic,Pnma,62.0,mmm,0.1,1.16.2,mp-776593,-9.122406674,-3.98370952225,,,
20.0,3.0,ScWN3,321.0965329667152,5.602060709056989,Triclinic,P-1,2.0,-1,0.1,1.16.2,mp-1246967,-9.885290288499998,-1.0252734664999992,,,
20.0,3.0,ScTlO3,256.387499472698,7.7030337220526865,Orthorhombic,Pnma,62.0,mmm,0.1,1.16.2,mp-752429,-7.165380819000001,-2.4583451419166673,,,
10.0,3.0,ScBiO3,141.5365353662609,7.08472976865481,Trigonal,R3c,161.0,3m,0.1,1.16.2,mp-754009,-7.797074836999999,-2.7944699632499996,37.05146867347994,5.956688183333334,
20.0,3.0,ScBiO3,282.20099549135153,7.106623445574228,Monoclinic,C2/c,15.0,2/m,0.1,1.16.2,mp-555769,-7.7840247885,-2.78141991475,40.17469012333308,5.7604376833333335,