nsites,nelements,formula_pretty,volume,density,crystal_system,symbol,number,point_group,symprec,version,material_id,energy_per_atom,formation_energy_per_atom,e_total,e_electronic,icsd
20.0,3.0,NdFeO3,286.97346397691916,5.742066332354788,Orthorhombic,Pnma,62.0,mmm,0.1,1.16.2,mp-1180433,-7.8866556665,-2.2710087112500004,,,['icsd-153236']
20.0,3.0,NdFeO3,239.47778048389097,6.880891673755685,Orthorhombic,Pnma,62.0,mmm,0.1,1.16.2,mp-20407,-8.392816302,-2.77716934675,,,"['icsd-153442', 'icsd-189726', 'icsd-156444', 'icsd-153441', 'icsd-27275', 'icsd-84774', 'icsd-280090']"
20.0,3.0,SmFeO3,323.95864237366874,5.2119534933455745,Orthorhombic,Pnma,62.0,mmm,0.1,1.16.2,mp-1105437,-8.075469965,-2.4697352692500005,,,['icsd-195645']
20.0,3.0,SmFeO3,234.87355529137713,7.188793032592718,Orthorhombic,Pnma,62.0,mmm,0.1,1.16.2,mp-20243,-8.4103017015,-2.8045670057500005,,,"['icsd-27276', 'icsd-252076', 'icsd-291099', 'icsd-189727', 'icsd-82424', 'icsd-252078', 'icsd-252077', 'icsd-93606', 'icsd-161780']"
5.0,3.0,SmFeO3,59.73708222101029,7.066202913845533,Cubic,Pm-3m,221.0,m-3m,0.1,1.16.2,mp-1099588,-8.187931516,-2.58219682025,,,
10.0,3.0,EuFeO3,119.22227858254996,7.1258132987861265,Orthorhombic,Imma,74.0,mmm,0.1,1.16.2,mp-1011260,-9.13360513,-2.4201873012500004,,,
5.0,3.0,EuFeO3,57.74869900077947,7.3556262992492005,Cubic,Pm-3m,221.0,m-3m,0.1,1.16.2,mp-1075904,-9.079024254,-2.36560642525,,,
20.0,3.0,EuFeO3,239.5344445916085,7.093390678602063,Orthorhombic,Pnma,62.0,mmm,0.1,1.16.2,mp-504703,-9.147178386,-2.433760557250001,,,"['icsd-27277', 'icsd-189728']"
20.0,3.0,GdFeO3,232.21112873567893,7.468297682099711,Orthorhombic,Pnma,62.0,mmm,0.1,1.16.2,mp-600576,-10.2751785465,-2.7979366297499992,,,"['icsd-27278', 'icsd-150356', 'icsd-172009', 'icsd-61346', 'icsd-23823', 'icsd-150359', 'icsd-16644', 'icsd-189729', 'icsd-150363', 'icsd-150364', 'icsd-247096', 'icsd-150358', 'icsd-150362', 'icsd-150361', 'icsd-150360', 'icsd-150357']"
20.0,3.0,TbFeO3,227.8446071426553,7.660263689728519,Orthorhombic,Pnma,62.0,mmm,0.1,1.16.2,mp-19853,-8.434927227,-2.84603653825,,,"['icsd-27279', 'icsd-189730', 'icsd-252448', 'icsd-98290', 'icsd-84412', 'icsd-22311']"
20.0,3.0,DyFeO3,225.748611771436,7.836562719084112,Orthorhombic,Pnma,62.0,mmm,0.1,1.16.2,mp-22283,-8.436198846,-2.852824009250001,,,"['icsd-280091', 'icsd-189731', 'icsd-27280']"
20.0,3.0,HoFeO3,223.93725501008694,7.9720353812052025,Orthorhombic,Pnma,62.0,mmm,0.1,1.16.2,mp-19785,-8.4373758575,-2.8588766147499998,,,"['icsd-239903', 'icsd-27281', 'icsd-189732']"
20.0,3.0,ErFeO3,222.00710582040696,8.111015951090808,Orthorhombic,Pnma,62.0,mmm,0.1,1.16.2,mp-19935,-8.4404627115,-2.8649014807499995,,,"['icsd-98307', 'icsd-16782', 'icsd-27282', 'icsd-189733']"
30.0,3.0,TmFeO3,363.35092316187996,7.479670757668568,Hexagonal,P6_3cm,185.0,6mm,0.1,1.16.2,mp-558400,-8.448114512666667,-2.8909299592499993,,,['icsd-55404']
20.0,3.0,TmFeO3,227.02195562690426,7.980858847597483,Orthorhombic,Pnma,62.0,mmm,0.1,1.16.2,mp-20651,-8.433557634,-2.8763730805833334,,,"['icsd-189734', 'icsd-98319', 'icsd-25658', 'icsd-27283']"
20.0,3.0,YbFeO3,200.99788721902777,9.149854793930306,Orthorhombic,Pnma,62.0,mmm,0.1,1.16.2,mp-19793,-7.3898156325,-2.4198765077499997,,,"['icsd-27284', 'icsd-189735']"
30.0,3.0,LuFeO3,356.53614196145696,7.791219595066053,Hexagonal,P6_3cm,185.0,6mm,0.1,1.16.2,mp-1193395,-8.468754416333333,-2.9025468435833326,,,"['icsd-185935', 'icsd-183152']"
20.0,3.0,HfFeO3,235.705452334387,7.956121570460496,Orthorhombic,Pnma,62.0,mmm,0.1,1.16.2,mp-753790,-9.562520446499999,-2.9090651717499996,,,
20.0,3.0,HfFeO3,235.5895267984845,7.960036505344464,Orthorhombic,Pnma,62.0,mmm,0.1,1.16.2,mp-753856,-9.596060445,-2.9426051702500002,,,
5.0,3.0,TaFeO3,63.017091198476514,7.5044199147459025,Cubic,Pm-3m,221.0,m-3m,0.1,1.16.2,mp-1187220,-9.176723004,-2.14315000925,,,
20.0,3.0,TlFeO3,237.57148540071753,8.617568623575883,Orthorhombic,Pnma,62.0,mmm,0.1,1.16.2,mp-505819,-6.4935586285,-1.3590125304166663,,,['icsd-93835']
5.0,3.0,TlFeF3,77.00625173301604,6.8405099414663955,Cubic,Pm-3m,221.0,m-3m,0.1,1.16.2,mp-998159,-5.384095289999999,-2.0706750381666668,,,
20.0,3.0,TlFeBr3,577.9433921229842,5.745686587527014,Orthorhombic,Pnma,62.0,mmm,0.1,1.16.2,mp-504821,-4.0713082775,-0.9729584081666669,,,['icsd-36217']
30.0,3.0,TlFeBr3,843.1851984228681,5.907388322308163,Hexagonal,P6_3cm,185.0,6mm,0.1,1.16.2,mp-568553,-3.998106716,-0.8997568466666659,,,['icsd-35225']
20.0,3.0,TlFeI3,635.3074683484213,6.701062410837013,Orthorhombic,Pnma,62.0,mmm,0.1,1.16.2,mp-23415,-3.493837328,-0.4432846466666668,,,"['icsd-26422', 'icsd-26423']"
5.0,3.0,FePbO3,61.514987243627175,8.396317842913724,Cubic,Pm-3m,221.0,m-3m,0.1,1.16.2,mp-973579,-6.761996207999999,-1.357449325249999,,,
30.0,3.0,FeBiO3,379.3144417492893,8.216757680391034,Monoclinic,C2/m,12.0,2/m,0.1,1.16.2,mp-1193035,-7.058785729999999,-1.628670435249999,,,"['icsd-164223', 'icsd-164224']"
5.0,3.0,FeBiO3,128.43770899214786,4.044418207321099,Trigonal,R3,146.0,3,0.1,1.16.2,mp-655631,-6.6749197460000005,-1.2448044512500005,,,['icsd-162264']
5.0,3.0,FeBiO3,119.2804837913782,4.354910310918767,Trigonal,R3,146.0,3,0.1,1.16.2,mp-654759,-6.52657535,-1.0964600552500001,,,['icsd-162264']
5.0,3.0,FeBiO3,110.06483901965457,4.719543619753908,Tetragonal,P4/mmm,123.0,4/mmm,0.1,1.16.2,mp-1181635,-5.012193886,0.41792140875,,,
10.0,3.0,FeBiO3,517.8814859665492,2.006079857382676,Monoclinic,Cc,9.0,m,0.1,1.16.2,mp-1181670,-5.417101346000001,0.01301394874999957,,,
5.0,3.0,FeBiO3,109.19388191578324,4.757187853758022,Monoclinic,Cm,8.0,m,0.1,1.16.2,mp-1181856,-6.699512562000001,-1.269397267250001,,,
10.0,3.0,FeBiO3,137.3487563902953,7.564040948115276,Tetragonal,P4mm,99.0,4mm,0.1,1.16.2,mp-1069079,-7.088385497,-1.6582702022500002,,,"['icsd-188466', 'icsd-188467']"
10.0,3.0,FeBiO3,122.78943566765976,8.460920207507165,Orthorhombic,Cmcm,63.0,mmm,0.1,1.16.2,mp-555351,-6.859807798,-1.4296925032499999,,,
10.0,3.0,FeBiO3,122.78943566765976,8.460920207507165,Cubic,Pm-3m,221.0,4/mmm,0.1,1.16.2,mp-547069,-6.859884235999999,-1.4297689412499992,,,"['icsd-20372', 'icsd-28622', 'icsd-20288']"
10.0,3.0,FeBiO3,2832.201859475577,0.36682117626364136,Monoclinic,Cc,9.0,m,0.1,1.16.2,mp-1182718,-3.70158609,1.72852920475,,,
10.0,3.0,FeBiO3,133.6500252449514,7.773373896524185,Trigonal,R3m,160.0,3m,0.1,1.16.2,mp-22949,-7.08161758,-1.6515022852499996,29.142087603412808,6.41767613,"['icsd-237026', 'icsd-20618', 'icsd-196250', 'icsd-196249', 'icsd-28027', 'icsd-196251', 'icsd-22342', 'icsd-196252']"
20.0,3.0,FeBiO3,246.29162882069974,8.436434664738288,Monoclinic,P2_1/m,11.0,2/m,0.1,1.16.2,mp-1181394,-6.8585577465,-1.42844245175,,,['icsd-162834']
10.0,3.0,FeBiO3,125.36629858388717,8.287008783415024,Trigonal,R3c,161.0,3m,0.1,1.16.2,mp-23501,-7.113564488,-1.68344919325,41.70737079327608,7.226661866666664,"['icsd-180497', 'icsd-245827', 'icsd-180498', 'icsd-196245', 'icsd-186583', 'icsd-194665', 'icsd-180506', 'icsd-181984', 'icsd-15299', 'icsd-192509', 'icsd-417309', 'icsd-158760', 'icsd-75324', 'icsd-191991', 'icsd-191940', 'icsd-157424', 'icsd-291449', 'icsd-186955', 'icsd-239770', 'icsd-180502', 'icsd-260119', 'icsd-192511', 'icsd-160918', 'icsd-417304', 'icsd-192992', 'icsd-185164', 'icsd-180504', 'icsd-181982', 'icsd-180503', 'icsd-109370', 'icsd-97591', 'icsd-163688', 'icsd-417307', 'icsd-246424', 'icsd-189037', 'icsd-180496', 'icsd-237080', 'icsd-193415', 'icsd-417308', 'icsd-417312', 'icsd-417303', 'icsd-194663', 'icsd-189682', 'icsd-187330', 'icsd-180128', 'icsd-188396', 'icsd-237368', 'icsd-189715', 'icsd-417305', 'icsd-168292', 'icsd-186677', 'icsd-260118', 'icsd-291450', 'icsd-181983', 'icsd-417310', 'icsd-163687', 'icsd-184771', 'icsd-51664', 'icsd-196302', 'icsd-180499', 'icsd-247765', 'icsd-180500', 'icsd-168740', 'icsd-193688', 'icsd-190940', 'icsd-180501', 'icsd-417311', 'icsd-237367', 'icsd-180505', 'icsd-186964', 'icsd-181403', 'icsd-180495', 'icsd-428380', 'icsd-417306', 'icsd-238724', 'icsd-168319', 'icsd-154394', 'icsd-169801']"
20.0,3.0,FeBiO3,240.59962335446852,8.636020314780833,Orthorhombic,Pnma,62.0,mmm,0.1,1.16.2,mp-645159,-7.103591225,-1.6734759302499995,,,"['icsd-162895', 'icsd-168321']"
10.0,3.0,FeBiO3,116.80742898715596,8.8942255344319,Trigonal,R3,146.0,3,0.1,1.16.2,mp-548231,-7.053073916,-1.6229586212499996,,,
5.0,3.0,FeBiO3,132.00542267882287,3.9351096205973217,Triclinic,P1,1.0,1,0.1,1.16.2,mp-551451,-6.677269874000001,-1.247154579250001,,,
5.0,3.0,AcFeO3,61.79731063258672,8.889999465919495,Cubic,Pm-3m,221.0,m-3m,0.1,1.16.2,mp-861502,-8.258555312,-2.77230284175,,,
10.0,3.0,UFeS3,167.01026619328368,7.756704764142548,Orthorhombic,Cmcm,63.0,mmm,0.1,1.16.2,mp-22667,-7.676297755,-1.2421415908750006,,,"['icsd-261039', 'icsd-261038', 'icsd-98', 'icsd-261040']"
10.0,3.0,UFeSe3,213.55801301175316,8.253847185375301,Orthorhombic,Cmcm,63.0,mmm,0.1,1.16.2,mp-1079562,-7.019360323999999,-0.9695271934062489,,,"['icsd-261037', 'icsd-601613']"
20.0,2.0,Co2O3,226.18613795884957,4.870760585879938,Orthorhombic,Cmcm,63.0,mmm,0.1,1.16.2,mp-1043418,-6.751493540999999,-0.9401531962499995,,,
10.0,2.0,Co2S3,139.31540507851574,5.102914506050052,Trigonal,R-3c,167.0,-3m,0.1,1.16.2,mp-1183728,-6.0374107100000005,-0.7122136718750006,,,
40.0,2.0,Co2S3,602.8439595321713,4.717072073132108,Tetragonal,I4_1/amd,141.0,4/mmm,0.1,1.16.2,mp-684732,-6.0154148890000005,-0.6902178508750005,,,
10.0,3.0,CoNiO3,96.02910678797515,5.727980852771097,Triclinic,P1,1.0,1,0.1,1.16.2,mp-1272234,-6.66452157,-1.1188174482499995,,,
10.0,3.0,CoNiO3,94.7561740490661,5.804929235591629,Triclinic,P-1,2.0,-1,0.1,1.16.2,mp-1279343,-6.68777252,-1.1420683982500002,,,
10.0,3.0,CoNiO3,87.35959763657713,6.296421914378502,Trigonal,R-3,148.0,-3,0.1,1.16.2,mp-1178424,-6.688139230999999,-1.1424351092499996,17.52145528999999,12.470350129999993,
10.0,3.0,ZnCoO3,96.65191092533513,5.92182722329932,Trigonal,R-3,148.0,-3,0.1,1.16.2,mp-758652,-5.947583421,-1.3059579132500005,,,
20.0,3.0,ZnCoO3,182.56240000135162,6.270249704181289,Orthorhombic,Pnma,62.0,mmm,0.1,1.16.2,mp-1369159,-5.8525985185,-1.2109730107499999,,,
20.0,3.0,ZnCoO3,207.1137448730862,5.526971835232615,Monoclinic,C2/c,15.0,2/m,0.1,1.16.2,mp-753026,-5.973560132,-1.3319346242500003,,,
20.0,3.0,CoGeO3,219.53869917220374,5.432943126031125,Monoclinic,C2/c,15.0,2/m,0.1,1.16.2,mp-22136,-7.105979349,-1.7916969922500001,,,['icsd-26814']
20.0,3.0,CoGeO3,227.07110289681435,5.252721510351957,Monoclinic,C2,5.0,2,0.1,1.16.2,mp-550220,-7.1073308635000005,-1.7930485067500002,,,
30.0,3.0,RbCoF3,461.0001393651109,4.352618193094321,Hexagonal,P6_3/mmc,194.0,6/mmm,0.1,1.16.2,mp-541814,-5.392403945,-2.627746191,,,['icsd-410388']
10.0,3.0,RbCoCl3,253.43432316738318,3.286032947975301,Hexagonal,P6_3/mmc,194.0,6/mmm,0.1,1.16.2,mp-27707,-4.257212356999999,-1.5303199874999998,,,['icsd-24305']
10.0,3.0,RbCoBr3,298.40385942819324,4.274975768801786,Hexagonal,P6_3/mmc,194.0,6/mmm,0.1,1.16.2,mp-1206319,-3.8331921639999997,-1.2836047924999998,,,
30.0,3.0,RbCoBr3,919.6704571121459,4.161281658578614,Hexagonal,P6_3cm,185.0,6mm,0.1,1.16.2,mp-1209412,-3.653978307333333,-1.1043909358333333,,,
30.0,3.0,RbCoBr3,902.0031510365924,4.242787622991495,Trigonal,P3c1,158.0,3m,0.1,1.16.2,mp-1209578,-3.7853604969999997,-1.2357731255,,,
30.0,3.0,RbCoBr3,918.6546784473605,4.165882888209415,Trigonal,P-3c1,165.0,-3m,0.1,1.16.2,mp-1209410,-3.6987378499999997,-1.1491504785,,,
20.0,3.0,SrCoO3,259.7974268506855,4.9740322030934,Triclinic,P-1,2.0,-1,0.1,1.16.2,mp-562466,-6.660390812999999,-1.932815336583333,,,
20.0,3.0,SrCoO3,232.1834068550809,5.565603437986736,Tetragonal,P4/mmm,123.0,4/mmm,0.1,1.16.2,mp-1273854,-6.698450142,-1.9708746655833338,,,
10.0,3.0,SrCoO3,112.93253836834432,5.721295147113838,Tetragonal,P4/mbm,127.0,4/mmm,0.1,1.16.2,mp-1283849,-6.715478788,-1.9879033115833338,,,
10.0,3.0,SrCoO3,117.28063713577293,5.509182073849565,Cubic,Pm-3m,221.0,m-3m,0.1,1.16.2,mp-505766,-6.651910965000001,-1.9243354885833341,,,"['icsd-77142', 'icsd-184078']"
20.0,3.0,SrCoO3,235.46734734172708,5.4879828648204,Orthorhombic,Amm2,38.0,mm2,0.1,1.16.2,mp-1272815,-6.6941995435,-1.9666240670833333,,,
20.0,3.0,SrCoO3,262.5970297133935,4.921002986387556,Monoclinic,P2_1/m,11.0,2/m,0.1,1.16.2,mp-550781,-6.6462547354999995,-1.9186792590833335,,,['icsd-108896']
20.0,3.0,YCoO3,226.93867728566613,5.731863777604832,Triclinic,P-1,2.0,-1,0.1,1.16.2,mp-1273178,-8.277534488499999,-2.594563480083333,,,
10.0,3.0,YCoO3,128.09699479242505,5.077330604746487,Hexagonal,P6_3/mmc,194.0,6/mmm,0.1,1.16.2,mp-1387356,-8.182845361,-2.4998743525833333,,,
20.0,3.0,YCoO3,205.82626822115904,6.319803566926551,Orthorhombic,Pnma,62.0,mmm,0.1,1.16.2,mp-22668,-8.2884854835,-2.6055144750833334,,,"['icsd-155838', 'icsd-155835', 'icsd-155834', 'icsd-155836', 'icsd-155837']"
5.0,3.0,YCoO3,54.26048474581901,5.993226885848512,Cubic,Pm-3m,221.0,m-3m,0.1,1.16.2,mp-1435972,-8.058154953999999,-2.3751839455833332,,,
20.0,3.0,YCoO3,225.35994112535496,5.772017766670035,Monoclinic,P2_1/c,14.0,2/m,0.1,1.16.2,mp-1288734,-8.273725645499999,-2.590754637083333,,,
30.0,3.0,YCoO3,376.25813589890873,5.185728067900504,Hexagonal,P6_3cm,185.0,6mm,0.1,1.16.2,mp-1330514,-8.266468037666668,-2.5834970292500015,,,
10.0,3.0,ZrCoH3,79.57346425534098,6.39316289794101,Orthorhombic,Cmcm,63.0,mmm,0.1,1.16.2,mp-1188065,-5.6670875469999995,-0.5002482350000002,,,['icsd-200548']
20.0,3.0,ZrCoO3,228.8237243191404,5.75193460615361,Orthorhombic,Pnma,62.0,mmm,0.1,1.16.2,mp-756665,-8.8233933775,-2.72417646575,,,
20.0,3.0,ZrCoO3,241.06116989455313,5.459938235577097,Trigonal,R-3,148.0,-1,0.1,1.16.2,mp-761293,-8.8048382725,-2.70562136075,,,
20.0,3.0,CoMoN3,370.4612353639292,3.5301832104286355,Triclinic,P-1,2.0,-1,0.1,1.16.2,mp-1246547,-8.461275589,0.1314149470000004,,,
5.0,3.0,CoMoO3,63.216023109056,5.328963454597332,Cubic,Pm-3m,221.0,m-3m,0.1,1.16.2,mp-1183772,-7.612427733999999,-1.0536209262499994,,,
5.0,3.0,CoRhO3,59.037908071244885,5.902010642739138,Cubic,Pm-3m,221.0,m-3m,0.1,1.16.2,mp-1183715,-6.311539472,-0.44900111225000006,,,
20.0,3.0,CoAgO3,233.99424736183184,6.097297228607657,Monoclinic,C2/c,15.0,2/m,0.1,1.16.2,mp-752700,-5.325607807999999,-0.3694198215833325,,,
20.0,3.0,CoAgO3,224.59738848804346,6.352400112726087,Triclinic,P-1,2.0,-1,0.1,1.16.2,mp-1273356,-5.706059260000001,-0.7498712735833337,,,
10.0,3.0,CoAgO3,112.71986320984168,6.328664865807177,Trigonal,R-3,148.0,-3,0.1,1.16.2,mp-753992,-5.695152451,-0.7389644645833329,,,
5.0,3.0,CoAgF3,84.24074112678909,4.411440354630911,Cubic,Pm-3m,221.0,m-3m,0.1,1.16.2,mp-1206915,-3.9836222840000004,-0.848560143833334,,,
5.0,3.0,CoAgF3,66.1825258716729,5.615122723350054,Cubic,Pm-3m,221.0,m-3m,0.1,1.16.2,mp-1206910,-4.771893986,-1.6368318458333335,,,
20.0,3.0,CdCoO3,236.9893852503211,6.1475599926029165,Monoclinic,C2/c,15.0,2/m,0.1,1.16.2,mp-768578,-5.727936619499999,-1.1536818817499992,,,
10.0,3.0,CdCoO3,111.68017699771292,6.522672611211341,Trigonal,R-3,148.0,-3,0.1,1.16.2,mp-770662,-5.714080059,-1.1398253212499996,,,
20.0,3.0,CdCoO3,217.36109870664112,6.702701044968174,Orthorhombic,Pnma,62.0,mmm,0.1,1.16.2,mp-752746,-5.674122783,-1.0998680452499996,,,
20.0,3.0,InCoO3,202.4509888295771,7.275312124108903,Orthorhombic,Pnma,62.0,mmm,0.1,1.16.2,mp-755167,-6.48039367,-1.5403801382499993,,,
20.0,3.0,CoSnO3,236.2188751736575,6.34473178596197,Trigonal,R-3,148.0,-1,0.1,1.16.2,mp-761574,-6.941385221999999,-1.74979406525,,,
20.0,3.0,CoSnO3,228.5001761928931,6.559055799122409,Orthorhombic,Pnma,62.0,mmm,0.1,1.16.2,mp-752613,-6.899944682999999,-1.70835352625,,,
5.0,3.0,CoSnO3,52.426711210164086,7.146859736015265,Cubic,Pm-3m,221.0,m-3m,0.1,1.16.2,mp-1183692,-6.292458915999999,-1.10086775925,,,
5.0,3.0,CoSbO3,53.359474093335905,7.116842923310956,Cubic,Pm-3m,221.0,m-3m,0.1,1.16.2,mp-1183681,-6.28937231,-1.0738952762500005,,,
15.0,3.0,CsCoF3,259.2524122553585,4.7814213516825,Trigonal,R-3m,166.0,-3m,0.1,1.16.2,mp-556943,-5.252632150666667,-2.5050007367528737,,,"['icsd-410389', 'icsd-15091']"
10.0,3.0,CsCoCl3,273.03319678961685,3.6271695022286243,Hexagonal,P6_3/mmc,194.0,6/mmm,0.1,1.16.2,mp-504708,-4.267015151,-1.5571491215862068,,,['icsd-27511']
20.0,3.0,BaCoO3,263.4501234018471,6.158290639687289,Hexagonal,P6_3/mmc,194.0,6/mmm,0.1,1.16.2,mp-18965,-6.827112947000001,-2.053641173250001,,,"['icsd-173504', 'icsd-88670', 'icsd-192733', 'icsd-26586', 'icsd-922']"
20.0,3.0,BaCoO3,275.3943444952729,5.891197337198421,Monoclinic,C2/m,12.0,2/m,0.1,1.16.2,mp-1283250,-6.826057752,-2.0525859782499998,,,
5.0,3.0,BaCoO3,63.120523575171546,6.4258118321765165,Cubic,Pm-3m,221.0,m-3m,0.1,1.16.2,mp-1076782,-6.604887678,-1.8314159042500002,,,
10.0,3.0,LaCoN3,156.9199040239598,5.076409550800055,Monoclinic,C2/m,12.0,2/m,0.1,1.16.2,mp-989643,-8.192654315999999,-0.7818923810000001,22.982426886666662,12.743884393333332,
20.0,3.0,LaCoO3,243.1968758343009,6.714259250947069,Monoclinic,P2_1/c,14.0,2/m,0.1,1.16.2,mp-1273989,-7.9646670505,-2.5877888437500003,,,
20.0,3.0,LaCoO3,236.98698979728346,6.890196270979421,Orthorhombic,Pnma,62.0,mmm,0.1,1.16.2,mp-1185232,-7.935100783499999,-2.558222576749999,,,['icsd-164459']
20.0,3.0,LaCoO3,239.43160537909029,6.819846823423928,Triclinic,P-1,2.0,-1,0.1,1.16.2,mp-1277476,-7.947710977,-2.57083277025,,,
20.0,3.0,LaCoO3,237.87742729827062,6.8644044620695785,Triclinic,P1,1.0,1,0.1,1.16.2,mp-1272753,-7.9521576865,-2.5752794797500003,,,
10.0,3.0,LaCoO3,118.07297697836468,6.914735764099035,Trigonal,R-3,148.0,-3,0.1,1.16.2,mp-1288145,-7.982587506,-2.6057092992500004,,,['icsd-201765']
10.0,3.0,LaCoO3,113.59993529183483,7.187006177323267,Monoclinic,C2/c,15.0,2/m,0.1,1.16.2,mp-1180725,-7.943823356,-2.5669451492500004,,,"['icsd-99370', 'icsd-247225']"
10.0,3.0,LaCoO3,113.20636655932361,7.211992235949901,Triclinic,P-1,2.0,-1,0.1,1.16.2,mp-561922,-7.9711760055,-2.59429779875,,,
5.0,3.0,LaCoO3,87.87961684788989,4.64523780354616,Cubic,Pm-3m,221.0,m-3m,0.1,1.16.2,mp-510611,-6.552312288,-1.1754340812500004,,,['icsd-161383']
10.0,3.0,LaCoO3,680.5994949910478,1.1995945378958581,Monoclinic,C2/c,15.0,2/m,0.1,1.16.2,mp-1181307,-5.067580595,0.3092976117500001,,,
20.0,3.0,LaCoO3,222.25359956685824,7.346953554651772,Trigonal,R-3c,167.0,2/m,0.1,1.16.2,mp-19051,-7.979271120999999,-2.6023929142499993,,,"['icsd-201762', 'icsd-201763', 'icsd-167257', 'icsd-201766', 'icsd-236314', 'icsd-201764', 'icsd-190095', 'icsd-156452', 'icsd-201767', 'icsd-189375', 'icsd-99369', 'icsd-164900', 'icsd-180176']"
5.0,3.0,LaCoO3,55.60374124701541,7.341623228722615,Cubic,Pm-3m,221.0,m-3m,0.1,1.16.2,mp-573180,-7.9060387599999995,-2.52916055325,,,['icsd-28921']
10.0,3.0,LaCoO3,119.41139253008177,6.837232356035579,Orthorhombic,Imma,74.0,mmm,0.1,1.16.2,mp-1504268,-7.927442259999999,-2.5505640532499996,,,
20.0,3.0,PrCoO3,219.46802067311398,7.500799709937002,Orthorhombic,Pnma,62.0,mmm,0.1,1.16.2,mp-20090,-7.851972207999999,-2.5061142712499995,,,"['icsd-164819', 'icsd-164818', 'icsd-172045', 'icsd-88738', 'icsd-164817', 'icsd-164820', 'icsd-97111']"
5.0,3.0,PrCoO3,55.69128310911385,7.389781550642455,Cubic,Pm-3m,221.0,m-3m,0.1,1.16.2,mp-20427,-7.73563128,-2.38977334325,,,['icsd-28922']
20.0,3.0,NdCoO3,217.35679852411135,7.675549837320337,Orthorhombic,Pnma,62.0,mmm,0.1,1.16.2,mp-22599,-7.870058806,-2.5267525337500003,,,"['icsd-164823', 'icsd-153433', 'icsd-164821', 'icsd-164822', 'icsd-164906', 'icsd-153431', 'icsd-82078', 'icsd-164824', 'icsd-153432', 'icsd-153434']"
5.0,3.0,NdCoO3,54.95630053384298,7.5893615624873885,Cubic,Pm-3m,221.0,m-3m,0.1,1.16.2,mp-20031,-7.791900061999999,-2.4485937897499994,,,['icsd-28923']
20.0,3.0,SmCoO3,211.84902183711753,8.066922550645563,Orthorhombic,Pnma,62.0,mmm,0.1,1.16.2,mp-20016,-7.906673628999999,-2.5732796162499993,,,"['icsd-90969', 'icsd-291093']"
5.0,3.0,SmCoO3,53.02909578224753,8.056754628664423,Cubic,Pm-3m,221.0,m-3m,0.1,1.16.2,mp-22549,-7.776120517999999,-2.442726505249999,,,['icsd-28924']
5.0,3.0,EuCoO3,53.58753660007628,8.022498230674898,Cubic,Pm-3m,221.0,m-3m,0.1,1.16.2,mp-1075975,-8.564379339999999,-2.123302194249999,,,
20.0,3.0,EuCoO3,211.81646781083614,8.118460703334325,Orthorhombic,Pnma,62.0,mmm,0.1,1.16.2,mp-1212757,-8.661387889,-2.220310743249999,,,