nsites,nelements,formula_pretty,volume,density,crystal_system,symbol,number,point_group,symprec,version,material_id,energy_per_atom,formation_energy_per_atom,e_total,e_electronic,icsd
160.0,2.0,B2H3,1590.5664119462933,0.8233614718583354,Orthorhombic,Pbca,61.0,mmm,0.1,1.16.2,mp-27876,-4.859037403625,-0.15164506829166627,,,"['icsd-28449', 'icsd-43256']"
100.0,2.0,B2O3,1451.2428042950805,1.5932146100205433,Triclinic,P1,1.0,1,0.1,1.16.2,mp-1245212,-8.3164951962,-2.676725261116666,,,
15.0,2.0,B2O3,135.3764045815366,2.561902769138968,Trigonal,P3_121,152.0,32,0.1,1.16.2,mp-306,-8.438589621333334,-2.79881968625,4.803695356649706,2.723303353333334,"['icsd-252683', 'icsd-252682', 'icsd-16021', 'icsd-252684', 'icsd-51575', 'icsd-252681']"
10.0,2.0,B2O3,74.61630731428222,3.0987076709001675,Orthorhombic,Cmc2_1,36.0,mm2,0.1,1.16.2,mp-717,-8.412938683,-2.7731687479166665,7.035234953333334,3.0541337666666664,['icsd-34685']
100.0,2.0,B2O3,1324.4500992158262,1.74573677019547,Triclinic,P1,1.0,1,0.1,1.16.2,mp-1245185,-8.3301478657,-2.6903779306166666,,,
100.0,2.0,B2O3,1424.0267176152017,1.6236642261615835,Triclinic,P1,1.0,1,0.1,1.16.2,mp-1245270,-8.3100190305,-2.670249095416666,,,
100.0,2.0,B2O3,1394.497853453903,1.6580457494168077,Triclinic,P1,1.0,1,0.1,1.16.2,mp-1245057,-8.2917841568,-2.6520142217166667,,,
100.0,2.0,B2O3,1279.8051024945007,1.8066354275220913,Triclinic,P1,1.0,1,0.1,1.16.2,mp-1245025,-8.3754198068,-2.7356498717166664,,,
320.0,2.0,B2F3,4710.75963198547,1.7736002927287808,Monoclinic,P2/c,13.0,2/m,0.1,1.16.2,mp-1205212,-6.1401174924375,-2.321473403604166,,,['icsd-412616']
250.0,2.0,B2S3,4055.0216882311643,2.4123142396181847,Tetragonal,I4_1/a,88.0,4/m,0.1,1.16.2,mp-1199451,-5.88899102756,-0.735364399101667,,,['icsd-59605']
10.0,2.0,B2S3,200.1477092907216,1.9549534881304944,Trigonal,R-3c,167.0,-3m,0.1,1.16.2,mp-866066,-5.784205343,-0.6305787145416666,,,
5.0,3.0,MgBO3,37.83958725006121,3.647354163171599,Cubic,Pm-3m,221.0,m-3m,0.1,1.16.2,mp-1185693,-6.3307138819999995,-1.7067662910833328,,,
40.0,3.0,MgBO3,417.8595139301743,2.6423115231454246,Monoclinic,P2_1/c,14.0,2/m,0.1,1.16.2,mp-1199652,-7.16188117775,-2.537933586833333,,,"['icsd-109099', 'icsd-4227']"
10.0,3.0,AlBO3,81.46986382228383,3.497216426150522,Trigonal,R-3c,167.0,-3m,0.1,1.16.2,mp-8110,-8.17212798,-3.1191212330833338,,,['icsd-30538']
5.0,3.0,SiBO3,42.97268208926432,3.35776211805348,Cubic,Pm-3m,221.0,m-3m,0.1,1.16.2,mp-972839,-6.38929876,-1.0003435730833332,,,
5.0,3.0,SiBO3,37.13464487955602,3.885644914566695,Cubic,Pm-3m,221.0,m-3m,0.1,1.16.2,mp-972822,-6.378583398,-0.9896282110833333,,,
20.0,3.0,CaBO3,265.8473593089517,2.470681810999028,Monoclinic,P2_1/c,14.0,2/m,0.1,1.16.2,mp-1189809,-7.521660023,-2.8166484660833335,,,['icsd-162409']
10.0,3.0,CaBO3,133.29544697205682,2.463790962359136,Monoclinic,P2_1/m,11.0,2/m,0.1,1.16.2,mp-1084760,-7.523356677,-2.8183451200833334,,,['icsd-180447']
5.0,3.0,CaBO3,42.13256708502324,3.8973665776244015,Cubic,Pm-3m,221.0,m-3m,0.1,1.16.2,mp-984628,-6.72671534,-2.0217037830833333,,,
10.0,3.0,ScBO3,100.67384890531,3.4230542310583343,Trigonal,R-3c,167.0,-3m,0.1,1.16.2,mp-8697,-9.008089935,-3.4377045330833327,15.508322133334667,3.9037174700000015,"['icsd-195099', 'icsd-65010']"
10.0,3.0,TiBO3,95.70124589670453,3.701937125617603,Trigonal,R-3c,167.0,-3m,0.1,1.16.2,mp-9716,-8.884257016,-3.0012670317499994,,,['icsd-402039']
10.0,3.0,VBO3,89.69635938619571,4.063605840500683,Trigonal,R-3c,167.0,-3m,0.1,1.16.2,mp-18946,-8.848075437,-2.7274026420833337,9.619767120012337,4.595759303333335,"['icsd-419132', 'icsd-45060']"
10.0,3.0,CrBO3,86.63825814730751,4.247466035697327,Trigonal,R-3c,167.0,-3m,0.1,1.16.2,mp-19299,-8.855383028,-2.620881953083333,8.502167343328804,4.712565156666668,['icsd-43311']
10.0,3.0,MnBO3,95.0344835636498,3.975014898968058,Trigonal,R-3c,167.0,-3m,0.1,1.16.2,mp-761288,-8.521729229,-2.385434589669541,,,
5.0,3.0,MnBO3,39.20780690160286,4.817452414888827,Cubic,Pm-3m,221.0,m-3m,0.1,1.16.2,mp-1185996,-7.485155182,-1.3488605426695401,,,
20.0,3.0,MnBO3,190.43316385079186,3.967412822876042,Triclinic,P-1,2.0,-1,0.1,1.16.2,mp-1278986,-8.5338120395,-2.3975174001695407,,,
15.0,3.0,MnBO3,187.8965140668545,3.015730413818371,Hexagonal,P-6,174.0,-6,0.1,1.16.2,mp-25296,-8.340365041333333,-2.2040704020028725,,,
20.0,3.0,MnBO3,180.72689745193009,4.180489937107684,Monoclinic,C2/c,15.0,-1,0.1,1.16.2,mp-1289597,-8.5457817935,-2.4094871541695397,,,
20.0,3.0,FeBO3,236.18171736852372,3.2244287215966017,Hexagonal,P6_3/mmc,194.0,mmm,0.1,1.16.2,mp-1274711,-8.1665428,-2.168646977083334,,,
10.0,3.0,FeBO3,90.18607292723624,4.2221104006464065,Trigonal,R-3c,167.0,-3m,0.1,1.16.2,mp-19097,-8.269021531,-2.2711257080833334,14.266602586664234,4.844256373333334,['icsd-34474']
20.0,3.0,FeBO3,235.11272342891718,3.239089326568591,Monoclinic,C2/c,15.0,2/m,0.1,1.16.2,mp-849295,-8.1663691055,-2.1684732825833337,,,
40.0,3.0,FeBO3,402.110928972674,3.787766300929518,Monoclinic,P2_1/c,14.0,2/m,0.1,1.16.2,mp-1199904,-8.17708015475,-2.1791843318333335,,,['icsd-192830']
10.0,3.0,CoBO3,119.6691120518733,3.2676075445065167,Triclinic,P-1,2.0,-1,0.1,1.16.2,mp-757083,-7.691966076999999,-1.966410937083333,,,
5.0,3.0,CoBO3,37.75525238159948,5.178507210504986,Cubic,Pm-3m,221.0,m-3m,0.1,1.16.2,mp-1183397,-6.641636028000001,-0.9160808880833343,,,
20.0,3.0,CoBO3,231.93289533114293,3.371938187783153,Monoclinic,C2/c,15.0,2/m,0.1,1.16.2,mp-765572,-7.6689170925,-1.9433619525833337,,,
5.0,3.0,CuBO3,37.627671376176025,5.3996322964140955,Cubic,Pm-3m,221.0,m-3m,0.1,1.16.2,mp-1184042,-5.821350108,-0.6976171930833331,,,
5.0,3.0,ZnBO3,38.57356425344683,5.34742323855386,Cubic,Pm-3m,221.0,m-3m,0.1,1.16.2,mp-971704,-5.595359675999999,-1.0395193730833328,,,
10.0,3.0,GaBO3,85.93315290339086,4.967413209102039,Trigonal,R-3c,167.0,-3m,0.1,1.16.2,mp-1078259,-7.440028688,-2.5305179025833326,,,['icsd-429062']
5.0,3.0,GaBO3,38.07755404786291,5.605211383792214,Cubic,Pm-3m,221.0,m-3m,0.1,1.16.2,mp-1184023,-6.037222814,-1.1277120285833326,,,
5.0,3.0,GeBO3,39.55913595647476,5.5177274881199905,Cubic,Pm-3m,221.0,m-3m,0.1,1.16.2,mp-973738,-6.239931454,-1.0114343020833332,,,
5.0,3.0,RbBO3,50.39388070820404,4.754100925449175,Cubic,Pm-3m,221.0,m-3m,0.1,1.16.2,mp-975385,-5.098590140000001,-0.5985917445833338,,,
20.0,3.0,RbBS3,479.1281739873625,2.6682652496689543,Monoclinic,P2_1/c,14.0,2/m,0.1,1.16.2,mp-9047,-5.0318684225,-1.0180133337083332,8.200089240000002,3.777334123333334,['icsd-73084']
20.0,3.0,RbBSe3,579.4157869268114,3.819179354541516,Monoclinic,P2_1/c,14.0,2/m,0.1,1.16.2,mp-10552,-4.462325289000001,-0.8327932337395836,,,['icsd-411343']
20.0,3.0,SrBO3,280.49127487221403,3.467507603603847,Orthorhombic,Pnma,62.0,mmm,0.1,1.16.2,mp-1189840,-7.4675276725,-2.8257374009166667,,,['icsd-281230']
20.0,3.0,YBO3,248.2914312338085,3.9515920469892225,Orthorhombic,Pnma,62.0,mmm,0.1,1.16.2,mp-1100874,-9.092416328999999,-3.495230525416666,,,
10.0,3.0,YBO3,123.10561187227881,3.984978548406962,Orthorhombic,Ama2,40.0,mm2,0.1,1.16.2,mp-1100876,-9.052236671,-3.4550508674166664,,,
10.0,3.0,YBO3,125.23366719974508,3.9172630928158516,Orthorhombic,Cmcm,63.0,mmm,0.1,1.16.2,mp-1216067,-9.078990353,-3.4818045494166667,,,
30.0,3.0,YBO3,327.0097545684276,4.500537512836404,Orthorhombic,Cmcm,63.0,mmm,0.1,1.16.2,mp-29205,-9.128732909666667,-3.5315471060833334,12.70311322,3.5542208766666668,"['icsd-44162', 'icsd-100015']"
10.0,3.0,YBO3,121.2254944061883,4.0467826087455565,Orthorhombic,Ama2,40.0,mm2,0.1,1.16.2,mp-760457,-9.043673593,-3.446487789416666,13.773217553333332,3.4313149766666666,
5.0,3.0,ZrBO3,40.99870729715771,6.076679151888352,Cubic,Pm-3m,221.0,m-3m,0.1,1.16.2,mp-1188026,-8.09859658,-2.0851648730833334,,,
20.0,3.0,BMoN3,309.5160734435566,3.1925996059924238,Triclinic,P-1,2.0,-1,0.1,1.16.2,mp-1246423,-8.935687886,-0.42878255483333305,,,
5.0,3.0,BPdO3,40.30795288597972,6.806833934712135,Cubic,Pm-3m,221.0,m-3m,0.1,1.16.2,mp-1183242,-5.897181052,-0.5573131090833329,,,
10.0,3.0,AgBO3,109.9353807286683,5.035218550839825,Trigonal,R-3c,167.0,-3m,0.1,1.16.2,mp-780275,-6.3743721639999995,-1.5039693824166662,,,
5.0,3.0,AgBO3,42.26372548752631,6.548744367105115,Cubic,Pm-3m,221.0,m-3m,0.1,1.16.2,mp-985292,-5.419856482,-0.5494537004166666,,,
5.0,3.0,CdBO3,42.938277854427824,6.621547143902192,Cubic,Pm-3m,221.0,m-3m,0.1,1.16.2,mp-1183631,-5.485021036,-0.9965515030833331,,,
10.0,3.0,InBO3,105.35335310154868,5.473290410538121,Trigonal,R-3c,167.0,-3m,0.1,1.16.2,mp-7027,-7.315081526999999,-2.4608532000833327,10.113924757056553,3.6833785,"['icsd-195100', 'icsd-75254']"
5.0,3.0,SnBO3,42.61244452154257,6.917640374340761,Cubic,Pm-3m,221.0,m-3m,0.1,1.16.2,mp-972442,-6.342363178,-1.2365572260833333,,,
20.0,3.0,SnBO3,292.2274095201998,4.0349064744551635,Monoclinic,Cc,9.0,m,0.1,1.16.2,mp-772724,-7.3803365075,-2.2745305555833335,,,
20.0,3.0,BSbO3,313.2766235360048,3.828465813252713,Monoclinic,C2/c,15.0,2/m,0.1,1.16.2,mp-755829,-7.358162672500001,-2.2284708435833336,,,
10.0,3.0,BSbO3,155.7272770647208,3.85086307904932,Triclinic,P-1,2.0,-1,0.1,1.16.2,mp-753806,-7.357337273000001,-2.2276454440833335,,,
5.0,3.0,BSbO3,43.640418944934396,6.870745471143401,Cubic,Pm-3m,221.0,m-3m,0.1,1.16.2,mp-1183211,-6.391039034,-1.261347205083333,,,
20.0,3.0,CsBSe3,593.0100300717643,4.262965177252166,Monoclinic,P2_1/c,14.0,2/m,0.1,1.16.2,mp-573358,-4.4690228445,-0.8565171293257905,8.465095583333333,4.501439423333333,['icsd-411342']
5.0,3.0,BaBO3,53.74918146839155,6.059475020396386,Cubic,Pm-3m,221.0,m-3m,0.1,1.16.2,mp-1214407,-6.2623930880000005,-1.574706519083334,,,
20.0,3.0,LaBO3,247.04842514826802,5.315766467693733,Orthorhombic,Pnma,62.0,mmm,0.1,1.16.2,mp-8216,-8.813001928,-3.521908926083333,16.475507179999997,3.814281973333333,['icsd-35535']
10.0,3.0,LaBO3,127.94431487087007,5.132122265944873,Monoclinic,P2_1/m,11.0,2/m,0.1,1.16.2,mp-7492,-8.805830275,-3.5147372730833326,18.891383193333336,3.6838451600000006,['icsd-15383']
20.0,3.0,CeBO3,240.9429887520787,5.483837776597158,Orthorhombic,Pnma,62.0,mmm,0.1,1.16.2,mp-20882,-8.89645118,-3.405941768083333,,,['icsd-99689']
10.0,3.0,CeBO3,124.84650887509292,5.291666846074192,Monoclinic,P2_1/m,11.0,2/m,0.1,1.16.2,mp-20178,-8.898571303,-3.408061891083333,,,['icsd-99690']
20.0,3.0,CeBS3,415.117647879931,3.954115054487078,Orthorhombic,Pna2_1,33.0,mm2,0.1,1.16.2,mp-1189296,-6.523589921999999,-1.5192238167083325,,,['icsd-421071']
20.0,3.0,PrBO3,239.34951052552847,5.542315602904406,Orthorhombic,Pnma,62.0,mmm,0.1,1.16.2,mp-861504,-8.710246637500001,-3.450173905583334,,,['icsd-421745']
20.0,3.0,PrBS3,415.0017737104433,3.96788955659386,Orthorhombic,Pna2_1,33.0,mm2,0.1,1.16.2,mp-862754,-6.328215389,-1.554285963708334,,,"['icsd-710040', 'icsd-421072']"
20.0,3.0,NdBO3,241.13939568840678,5.593021400048572,Triclinic,P-1,2.0,-1,0.1,1.16.2,mp-13514,-8.7238331995,-3.4663121320833326,,,['icsd-240380']
20.0,3.0,NdBO3,234.24651458020253,5.757600290860531,Orthorhombic,Pnma,62.0,mmm,0.1,1.16.2,mp-7238,-8.7158639875,-3.4583429200833335,,,['icsd-412407']
20.0,3.0,NdBS3,407.9087938977532,4.0911804368669165,Orthorhombic,Pna2_1,33.0,mm2,0.1,1.16.2,mp-1188683,-6.318623375,-1.547245614208333,,,['icsd-421073']
20.0,3.0,SmBO3,235.39413174333598,5.902162905372458,Triclinic,P-1,2.0,-1,0.1,1.16.2,mp-8627,-8.7366616705,-3.4890528625833332,,,['icsd-40745']
10.0,3.0,SmBO3,128.49753616135,5.406074521045035,Orthorhombic,Ama2,40.0,mm2,0.1,1.16.2,mp-760477,-8.675841143,-3.428232335083333,13.639845809999999,3.4582408800000004,
20.0,3.0,SmBO3,258.812987764772,5.368101981731313,Orthorhombic,Pnma,62.0,mmm,0.1,1.16.2,mp-1173486,-8.7001538265,-3.452545018583333,,,
20.0,3.0,SmBS3,397.902104166193,4.296195400224133,Orthorhombic,Pna2_1,33.0,mm2,0.1,1.16.2,mp-972448,-6.2972980275,-1.5358325262083334,15.471959333333333,6.806223893333333,['icsd-710041']
20.0,3.0,EuBO3,239.3371010637984,5.849442167330318,Triclinic,P-1,2.0,-1,0.1,1.16.2,mp-22030,-9.460576591999999,-3.105284651083333,,,['icsd-88201']
10.0,3.0,EuBO3,128.79283262488732,5.435040532289112,Orthorhombic,Ama2,40.0,mm2,0.1,1.16.2,mp-1225223,-9.420712439999999,-3.0654204990833334,,,
15.0,3.0,GdBO3,173.62184449890864,6.199244282892027,Trigonal,R32,155.0,32,0.1,1.16.2,mp-29762,-10.399488719999999,-3.280372691083333,,,['icsd-87778']
10.0,3.0,GdBO3,122.76300328555719,5.844997803838378,Orthorhombic,Ama2,40.0,mm2,0.1,1.16.2,mp-1224628,-10.545738407,-3.4266223780833327,,,
10.0,3.0,GdBO3,157.43763671055578,4.557674388341321,Hexagonal,P6_3/mmc,194.0,6/mmm,0.1,1.16.2,mp-561949,-10.475372913,-3.356256884083332,,,['icsd-87779']
30.0,3.0,GdBO3,339.92516006133087,6.332712922461124,Monoclinic,C2/c,15.0,2/m,0.1,1.16.2,mp-1194303,-10.618909753333332,-3.499793724416666,,,['icsd-184753']
10.0,3.0,TbBO3,119.30788763395246,6.060902319096625,Orthorhombic,Ama2,40.0,mm2,0.1,1.16.2,mp-1217607,-8.699016827,-3.468252026083333,,,
20.0,3.0,TbBS3,387.4069269674787,4.559437273518319,Orthorhombic,Pna2_1,33.0,mm2,0.1,1.16.2,mp-863748,-6.263075194000001,-1.5184536997083335,,,['icsd-710042']
10.0,3.0,DyBO3,120.53706474895905,6.097586218203746,Orthorhombic,Ama2,40.0,mm2,0.1,1.16.2,mp-753318,-8.692332451,-3.4670835020833337,13.970562953333333,3.4260538833333336,
60.0,3.0,DyBO3,602.8154083542863,7.3155244667935255,Triclinic,P-1,2.0,-1,0.1,1.16.2,mp-10792,-8.723935746666665,-3.4986867977499987,,,['icsd-412169']
20.0,3.0,DyBO3,220.04324872629763,6.6803698731989,Triclinic,P-1,2.0,-1,0.1,1.16.2,mp-12315,-8.7523384695,-3.527089520583334,,,['icsd-59849']
10.0,3.0,HoBO3,118.51798572341875,6.269566790805142,Orthorhombic,Ama2,40.0,mm2,0.1,1.16.2,mp-753056,-8.692011009,-3.4716376540833322,13.64112471,3.415749453333332,
60.0,3.0,HoBO3,620.0271110640851,7.190554227179876,Triclinic,P-1,2.0,-1,0.1,1.16.2,mp-780393,-8.722134835333332,-3.501761480416666,,,
10.0,3.0,HoBO3,119.95586286451699,6.19441525958512,Trigonal,R-3c,167.0,-3m,0.1,1.16.2,mp-754409,-8.75474245,-3.5343690950833335,,,
30.0,3.0,HoBO3,321.8398383288317,6.926331102417453,Orthorhombic,Cmcm,63.0,mmm,0.1,1.16.2,mp-752713,-8.781244773,-3.5608714180833325,,,
20.0,3.0,HoBO3,223.983121981949,6.634932318378414,Triclinic,P-1,2.0,-1,0.1,1.16.2,mp-850193,-8.748231233999999,-3.5278578790833324,,,
5.0,3.0,HoBO3,41.8843783630594,8.870328944168055,Cubic,Pm-3m,221.0,m-3m,0.1,1.16.2,mp-1184546,-7.910179908000001,-2.6898065530833337,,,
60.0,3.0,ErBO3,611.7684685111603,7.363473545399187,Triclinic,P-1,2.0,-1,0.1,1.16.2,mp-10791,-8.723252135333333,-3.505816792416666,,,['icsd-412168']
10.0,3.0,ErBO3,117.21055077696268,6.405482703178708,Orthorhombic,Ama2,40.0,mm2,0.1,1.16.2,mp-760405,-8.692274711,-3.474839368083334,13.914421316666667,3.403884466666667,
30.0,3.0,ErBO3,317.461550106139,7.094939422246892,Monoclinic,C2/c,15.0,2/m,0.1,1.16.2,mp-1194043,-8.785447342,-3.5680119990833323,,,['icsd-422094']
10.0,3.0,TmBO3,116.35561242130827,6.500362493841258,Orthorhombic,Ama2,40.0,mm2,0.1,1.16.2,mp-760484,-8.69007493,-3.491016264416667,12.413369126666666,3.3863751866666667,
30.0,3.0,TmBO3,324.08721585354914,7.001389952448992,Hexagonal,P6_3/mcm,193.0,6/mmm,0.1,1.16.2,mp-17620,-8.401931864,-3.2028731984166665,,,['icsd-27942']
30.0,3.0,YbBO3,347.7269464556958,6.643051246113465,Hexagonal,P6_3/mcm,193.0,6/mmm,0.1,1.16.2,mp-14237,-7.421459822666667,-2.8096465857500004,,,['icsd-34663']
10.0,3.0,YbBO3,119.74286619010729,6.4303564197090095,Trigonal,R-3c,167.0,-3m,0.1,1.16.2,mp-5364,-7.562026181,-2.950212944083334,,,"['icsd-160141', 'icsd-411805']"
10.0,3.0,YbBO3,121.75620129380579,6.324025389572381,Orthorhombic,Ama2,40.0,mm2,0.1,1.16.2,mp-1215682,-7.501292724,-2.889479487083333,,,
10.0,3.0,YbBO3,131.25533478869417,5.866346762663069,Monoclinic,P2_1/m,11.0,2/m,0.1,1.16.2,mp-1100836,-7.557534623,-2.9457213860833327,,,
10.0,3.0,LuBO3,117.68929086573688,6.596938601391654,Orthorhombic,Cmcm,63.0,mmm,0.1,1.16.2,mp-760461,-8.749382555,-3.541300870083333,10.667017170869629,3.2789233428754923,
10.0,3.0,LuBO3,109.98367787860556,7.059129507739583,Trigonal,R-3c,167.0,-3m,0.1,1.16.2,mp-7560,-8.778143964,-3.5700622790833334,,,"['icsd-16525', 'icsd-194864']"
10.0,3.0,LuBO3,113.66817285947049,6.830311479031603,Orthorhombic,Ama2,40.0,mm2,0.1,1.16.2,mp-1222450,-8.694018302,-3.485936617083334,,,
5.0,3.0,HfBO3,40.1803820086125,9.806890138288503,Cubic,Pm-3m,221.0,m-3m,0.1,1.16.2,mp-1184625,-8.317634202,-2.0223048150833334,,,
5.0,3.0,BOsO3,39.56185275227554,10.45298164634174,Cubic,Pm-3m,221.0,m-3m,0.1,1.16.2,mp-984553,-6.774564064000001,-0.22519899708333355,,,
5.0,3.0,BIrO3,39.84966404394991,10.460284216710495,Cubic,Pm-3m,221.0,m-3m,0.1,1.16.2,mp-1183221,-6.365849548,-0.29427113108333314,,,
5.0,3.0,BPtO3,40.96458071752925,10.291807458038486,Cubic,Pm-3m,221.0,m-3m,0.1,1.16.2,mp-1183277,-5.839233441999999,-0.32111519708333275,,,
5.0,3.0,BAuO3,42.75273889652396,9.934466602061132,Cubic,Pm-3m,221.0,m-3m,0.1,1.16.2,mp-1183212,-5.260162976,-0.30149499508333333,,,
5.0,3.0,TlBO3,44.17078148014977,9.894355808092861,Cubic,Pm-3m,221.0,m-3m,0.1,1.16.2,mp-1187494,-5.618110908,-0.8416906977499998,,,
20.0,3.0,TlBS3,459.40353654985586,4.502134236531832,Monoclinic,P2_1/c,14.0,2/m,0.1,1.16.2,mp-28809,-4.9664970925,-0.6762201888749999,,,['icsd-73085']
10.0,3.0,TlBSe3,250.6334832317473,5.99031722718172,Monoclinic,Cc,9.0,m,0.1,1.16.2,mp-29959,-4.420649939,-0.5146960689062496,,,['icsd-411344']
5.0,3.0,BPbO3,45.34560992453003,9.741156187118827,Cubic,Pm-3m,221.0,m-3m,0.1,1.16.2,mp-984554,-6.110985154,-1.0645641590833335,,,
20.0,3.0,BiBO3,259.34169065972594,6.858520761517384,Monoclinic,P2_1/c,14.0,2/m,0.1,1.16.2,mp-31250,-7.3731285689999995,-2.301139162083332,18.254207136666665,4.518825223333333,['icsd-413621']
5.0,3.0,AcBO3,51.54812640786059,9.206878605801688,Cubic,Pm-3m,221.0,m-3m,0.1,1.16.2,mp-1183052,-7.604279514,-2.476152931583333,,,
5.0,3.0,ThBO3,49.922780730192386,9.674205454494647,Cubic,Pm-3m,221.0,m-3m,0.1,1.16.2,mp-1187416,-8.176784634,-2.3901214030833335,,,
5.0,3.0,PaBO3,47.41571950860314,10.150622696223666,Cubic,Pm-3m,221.0,m-3m,0.1,1.16.2,mp-973877,-8.444989038,-2.238164525083333,,,
5.0,3.0,UBO3,46.18361720936252,10.672859942438274,Cubic,Pm-3m,221.0,m-3m,0.1,1.16.2,mp-1187784,-8.784558708,-2.2223851250833335,,,
5.0,3.0,NpBO3,45.70062729266607,10.748271127965891,Cubic,Pm-3m,221.0,m-3m,0.1,1.16.2,mp-977058,-9.156538866,-2.2630913488333335,,,
5.0,3.0,PuBO3,45.229927574695196,11.117119422654332,Cubic,Pm-3m,221.0,m-3m,0.1,1.16.2,mp-975564,-9.517090566,-2.359631319083333,,,
10.0,2.0,C2N3,67.4753454791871,3.2505054990993743,Orthorhombic,Cmc2_1,36.0,mm2,0.1,1.16.2,mp-1078791,-8.134402198,0.5589609540000012,,,['icsd-166404']
20.0,2.0,C2S3,444.05048455805706,1.7982102088656768,Monoclinic,P2_1/c,14.0,2/m,0.1,1.16.2,mp-1214152,-6.159956233,0.01337988412499982,,,
40.0,2.0,C2S3,898.8416329180352,1.776722584582068,Monoclinic,P2_1/c,14.0,2/m,0.1,1.16.2,mp-1214192,-6.190921827,-0.01758570987500079,,,
10.0,3.0,NaCO3,123.79553348782787,2.2266155964149488,Trigonal,R-3c,167.0,-3m,0.1,1.16.2,mp-1120755,-6.870565965999999,-1.7923145820603446,5.1935538700091355,2.5071400302732605,
20.0,3.0,NaCO3,247.2293722925607,2.2298731180235327,Monoclinic,P2_1/c,14.0,2/m,0.1,1.16.2,mp-727242,-6.855685126999999,-1.7774337430603446,,,['icsd-23868']
10.0,3.0,MgCO3,90.76659996550487,3.084978942928656,Orthorhombic,C222_1,20.0,222,0.1,1.16.2,mp-546079,-7.205036176999999,-2.0712338417499994,,,['icsd-161821']
10.0,3.0,MgCO3,92.60777472300774,3.023645157788725,Trigonal,R-3c,167.0,-3m,0.1,1.16.2,mp-5348,-7.58309781,-2.4492954747499995,7.116671896666051,2.766553460000001,"['icsd-94586', 'icsd-94585', 'icsd-80870', 'icsd-94578', 'icsd-77481', 'icsd-63663', 'icsd-94581', 'icsd-77486', 'icsd-94584', 'icsd-77485', 'icsd-40120', 'icsd-40118', 'icsd-67875', 'icsd-77484', 'icsd-73731', 'icsd-94588', 'icsd-180346', 'icsd-67812', 'icsd-94580', 'icsd-40119', 'icsd-156763', 'icsd-77483', 'icsd-156747', 'icsd-100675', 'icsd-10264', 'icsd-94587', 'icsd-40117', 'icsd-52150', 'icsd-94583', 'icsd-180347', 'icsd-40121', 'icsd-94582', 'icsd-94579', 'icsd-77482']"
60.0,3.0,MgCO3,546.6588860031457,3.0733577020445635,Monoclinic,C2/m,12.0,2/m,0.1,1.16.2,mp-2647164,-7.268449153166667,-2.1346468179166673,,,