material_id,formula_pretty,icsd,crystal_system,symbol,number,point_group,nsites,nelements,volume,density,energy_per_atom,formation_energy_per_atom
mp-1187744,VBiO3,,Cubic,Pm-3m,221.0,m-3m,5.0,3.0,61.15148173351130,8.361422175665390,-7.377992122,-1.8250998552500000
mp-18946,VBO3,"['icsd-419132', 'icsd-45060']",Trigonal,R-3c,167.0,-3m,10.0,3.0,89.69635938619570,4.063605840500680,-8.848075437,-2.7274026420833300
mp-22649,VCdO3,['icsd-172795'],Orthorhombic,Pnma,62.0,mmm,20.0,3.0,218.64374944563600,6.420601457724620,-6.9790683805,-2.00969598775
mp-1016904,VCdO3,,Cubic,Pm-3m,221.0,m-3m,5.0,3.0,56.628589540333400,6.197507247700210,-6.763391212,-1.7940188192500000
mp-556857,VCdO3,['icsd-88387'],Orthorhombic,Pnma,62.0,mmm,20.0,3.0,269.95413520633300,5.200232903785860,-7.049248041,-2.07987564825
mp-1277045,VCoO3,,Triclinic,P1,1.0,1,10.0,3.0,103.06190016310500,5.087313726796350,-8.135140591000000,-1.9286825912500000
mp-1206118,VCoO3,,Triclinic,P-1,2.0,-1,10.0,3.0,104.84497603539800,5.0007948805526200,-8.212322635,-2.00586463525
mp-1187746,VCoO3,,Cubic,Pm-3m,221.0,m-3m,5.0,3.0,53.84456178860740,4.868720275483930,-7.6933873340000000,-1.4869293342500000
mp-770849,VCrO3,,Triclinic,P1,1.0,1,20.0,3.0,198.97637091413100,5.038483540473990,-9.155606201,-2.4402022662500000
mp-755281,VCrO3,,Triclinic,P1,1.0,1,20.0,3.0,198.97723319771300,5.03846170580696,-9.154426213500000,-2.4390222787500000
mp-1373421,VCrO3,,Triclinic,P1,1.0,1,20.0,3.0,210.11675665238000,4.771343255848530,-7.601998721000000,-0.8865947862499990
mp-1101715,VCrO3,,Triclinic,P-1,2.0,-1,20.0,3.0,198.97063809352000,5.038628711251780,-9.157033004500000,-2.441629069750000
mp-1216392,VCrO3,,Trigonal,R3c,161.0,3m,10.0,3.0,99.6975000973038,5.0279052574820300,-9.159223562,-2.4438196272500000
mp-1370790,VCrO3,,Triclinic,P1,1.0,1,20.0,3.0,209.8286353801250,4.7778949139992300,-7.603256185500000,-0.8878522507499990
mp-1376270,VCrO3,,Triclinic,P1,1.0,1,20.0,3.0,209.63491910610700,4.782309999063950,-7.866720797000000,-1.151316862250000
mp-1375284,VCrO3,,Triclinic,P1,1.0,1,20.0,3.0,209.94192075432700,4.775316745659690,-7.518737944,-0.8033340092500000
mp-803450,VCrO3,,Triclinic,P1,1.0,1,20.0,3.0,210.11675665238000,4.771343255848530,-6.4477418455,0.26766208925000000
mp-1374293,VCrO3,,Triclinic,P-1,2.0,-1,20.0,3.0,210.9551688388540,4.7523802109818200,-7.801229788000000,-1.085825853250000
mp-806072,VCrO3,,Triclinic,P1,1.0,1,20.0,3.0,210.22288555063400,4.768934491447770,-6.558937358,0.15646657675000000
mp-757023,VCrO3,,Triclinic,P1,1.0,1,20.0,3.0,199.08241372395400,5.035799752680350,-9.1534814305,-2.4380774957500000
mp-770855,VCrO3,,Monoclinic,C2,5.0,2,20.0,3.0,198.94886664348800,5.0391801004356900,-9.155188710000000,-2.4397847752500000
mp-770779,VCrO3,,Triclinic,P1,1.0,1,20.0,3.0,199.00476310146300,5.03776469552615,-9.157353598500000,-2.441949663750000
mp-1337287,VCrO3,,Triclinic,P1,1.0,1,20.0,3.0,210.7371721527880,4.757296302084000,-7.893011195,-1.1776072602500000
mp-770843,VCrO3,,Triclinic,P1,1.0,1,20.0,3.0,198.9786550917360,5.038425701148170,-9.1555475535,-2.4401436187500000
mp-754036,VCrO3,,Triclinic,P1,1.0,1,20.0,3.0,198.72935474740800,5.044746263421220,-9.155962027,-2.4405580922500000
mp-770778,VCrO3,,Triclinic,P1,1.0,1,20.0,3.0,199.09235298037500,5.035548351236360,-9.153762243,-2.4383583082500000
mp-807999,VCrO3,,Triclinic,P1,1.0,1,20.0,3.0,209.8286353801250,4.7778949139992300,-6.533004731,0.18239920375000100
mp-753988,VCrO3,,Triclinic,P1,1.0,1,20.0,3.0,199.00531148478800,5.037750813353190,-9.155518006,-2.4401140712500000
mp-806062,VCrO3,,Triclinic,P1,1.0,1,20.0,3.0,209.94192075432700,4.775316745659690,-6.5462284725,0.16917546225000000
mp-1105167,VCuO3,"['icsd-195439', 'icsd-195438']",Cubic,Im-3,204.0,m-3,20.0,3.0,196.87983138529900,5.481797718239920,-7.3433243035,-1.7386885287500000
mp-504580,VCuO3,['icsd-19046'],Trigonal,R-3,148.0,-3,10.0,3.0,102.93500469095100,5.242412013754300,-7.401524406,-1.7968886312500000
mp-2371810,VCuO3,,Monoclinic,Cm,8.0,m,5.0,3.0,81.01951592977310,3.3302328397977500,-7.4017372220000000,-1.7971014472500000
mp-562987,VCuO3,['icsd-9414'],Triclinic,P1,1.0,1,5.0,3.0,80.04269880900080,3.3708740038573900,-7.389398718000000,-1.7847629432500000
mp-755580,VGaO3,,Orthorhombic,Pnma,62.0,mmm,20.0,3.0,207.87196926224500,5.389298103486120,-7.700893132500000,-2.3104794872500000
mp-755199,VGeO3,,Monoclinic,C2/c,15.0,2/m,20.0,3.0,239.22716142895200,4.763920504405170,-7.869839513500000,-2.160439501750000
mp-972116,VIrO3,,Cubic,Pm-3m,221.0,m-3m,5.0,3.0,60.57538264454690,7.981411816898520,-7.200050698000000,-0.6475694212500020
mp-1246912,VMoN3,,Triclinic,P-1,2.0,-1,20.0,3.0,269.4254658905700,4.656998335423140,-9.447640695,-0.4598325040000010
mp-1273627,VNiO3,,Trigonal,R3,146.0,3,10.0,3.0,102.60262241030400,5.102324182173680,-7.859973411,-1.9191516342500000
mp-1187750,VOsO3,,Cubic,Pm-3m,221.0,m-3m,5.0,3.0,59.878485316366600,8.01920057245928,-7.86462175,-0.834353823250001
mp-20032,VPbO3,"['icsd-152276', 'icsd-240256', 'icsd-187636', 'icsd-187635', 'icsd-152277', 'icsd-152278']",Tetragonal,P4mm,99.0,4mm,10.0,3.0,145.62135938137600,6.9819006476356300,-7.642703820000000,-2.115379965250000
mp-1070440,VPbO3,['icsd-187637'],Cubic,Pm-3m,221.0,m-3m,5.0,3.0,60.81770785843360,8.35869929314855,-7.54024152,-2.0129176652500000
mp-1078971,VPS3,['icsd-648076'],Monoclinic,C2/m,12.0,2/m,10.0,3.0,202.87012210072900,2.915747722244790,-6.160961794,-0.7796501585416670
mp-972184,VPtO3,,Cubic,Pm-3m,221.0,m-3m,5.0,3.0,55.45191986776770,8.804705797753170,-6.95606388,-0.9570427752500010
mp-754608,VSiO3,,Monoclinic,C2/c,15.0,2/m,20.0,3.0,211.80663719870800,3.9834503740275600,-8.679419126500000,-2.8095610797500000
mp-1207852,VSnO3,,Orthorhombic,Pnma,62.0,mmm,20.0,3.0,239.54344004967200,6.035077889986490,-7.545711717500000,-1.9590029057500000
mp-1247461,VWN3,,Triclinic,P-1,2.0,-1,20.0,3.0,294.89011881155600,6.234727326229740,-9.9104276765,-0.5001234615000000
mp-1378086,VZnO3,,Orthorhombic,Pnma,62.0,mmm,20.0,3.0,202.89708302378800,5.380214103185050,-7.1620193815,-2.125276218750000
mp-1016931,VZnO3,,Cubic,Pm-3m,221.0,m-3m,5.0,3.0,54.02571356190830,5.05143604595241,-6.7178567100000000,-1.6811135472500000
mp-1369873,YAgO3,,Orthorhombic,Pnma,62.0,mmm,20.0,3.0,262.8602745640320,6.185094103225860,-6.923842615,-2.0960239649166700
mp-1094009,YAgO3,,Cubic,Pm-3m,221.0,m-3m,5.0,3.0,86.74504699043110,4.685614886915890,-6.369843766000000,-1.5420251159166700
mp-1418929,YAgO3,,Cubic,Pm-3m,221.0,m-3m,5.0,3.0,66.64785960361090,6.098528684371440,-6.419932356000000,-1.5921137059166700
mp-1369676,YAgO3,,Hexagonal,P6_3cm,185.0,6mm,30.0,3.0,410.7811382141840,5.936794741524690,-6.992948920333330,-2.1651302702500000
mp-3792,YAlO3,"['icsd-88261', 'icsd-83029', 'icsd-99423', 'icsd-83028', 'icsd-99419', 'icsd-99421', 'icsd-99426', 'icsd-191383', 'icsd-99425', 'icsd-4115', 'icsd-99420', 'icsd-236590', 'icsd-99422', 'icsd-191100', 'icsd-83027', 'icsd-167509', 'icsd-99424']",Orthorhombic,Pnma,62.0,mmm,20.0,3.0,202.91174903140500,5.36466564646124,-8.7319481845,-3.721525569083330
mp-756214,YAlO3,,Trigonal,R-3c,167.0,-3m,10.0,3.0,104.06847158327300,5.229987875920270,-8.704976543000000,-3.694553927583330
mp-756705,YAlO3,,Orthorhombic,Cmcm,63.0,mmm,30.0,3.0,397.1641799747770,4.11122305652517,-8.690346495666670,-3.6799238802500000
mp-7964,YAlO3,['icsd-27100'],Hexagonal,P6_3/mmc,194.0,6/mmm,10.0,3.0,121.03513647008200,4.496849927381270,-8.648558362,-3.638135746583330
mp-759116,YbAlO3,,Hexagonal,P6_3/mmc,194.0,6/mmm,10.0,3.0,119.1165706553710,6.915015483862060,-7.105473057,-3.0804230082500000
mp-1188667,YbAlO3,['icsd-168212'],Orthorhombic,Pnma,62.0,mmm,20.0,3.0,196.08483275663300,8.401393609966260,-7.229669609,-3.20461956025
mp-758371,YbAlO3,,Cubic,Pm-3m,221.0,m-3m,5.0,3.0,49.0781059712359,8.391653611787670,-7.228837384,-3.203787335250000
mp-1187924,YbAuO3,,Cubic,Pm-3m,221.0,m-3m,5.0,3.0,66.28816419088090,10.471149071965000,-5.329445254,-1.3987339712500000
mp-1187905,YbBeO3,,Cubic,Pm-3m,221.0,m-3m,5.0,3.0,44.64181780299990,8.557170505086000,-6.4736874660000000,-2.4498700102500000
mp-1101165,YbBiO3,,Trigonal,R3c,161.0,3m,10.0,3.0,145.30278141417900,9.828616874569440,-6.430456725000000,-2.386424016250000
mp-937870,YbBiO3,,Triclinic,P1,1.0,1,40.0,3.0,635.7338789051100,8.985680434642620,-2.910346328,1.1336863807500000
mp-676312,YbBiO3,,Triclinic,P1,1.0,1,40.0,3.0,635.7339231882670,8.985679808729350,-6.376208732750000,-2.332176024
mp-14237,YbBO3,['icsd-34663'],Hexagonal,P6_3/mcm,193.0,6/mmm,30.0,3.0,347.7269464556960,6.643051246113470,-7.421459822666670,-2.8096465857500000
mp-5364,YbBO3,"['icsd-160141', 'icsd-411805']",Trigonal,R-3c,167.0,-3m,10.0,3.0,119.74286619010700,6.4303564197090100,-7.562026181,-2.950212944083330
mp-1215682,YbBO3,,Orthorhombic,Ama2,40.0,mm2,10.0,3.0,121.75620129380600,6.324025389572380,-7.501292724,-2.889479487083330
mp-1100836,YbBO3,,Monoclinic,P2_1/m,11.0,2/m,10.0,3.0,131.25533478869400,5.866346762663070,-7.557534623,-2.9457213860833300
mp-1187568,YbCdO3,,Cubic,Pm-3m,221.0,m-3m,5.0,3.0,69.29733598081940,7.990284409775510,-4.994672274,-1.53415943925
mp-1207625,YbCeO3,,Orthorhombic,Pnma,62.0,mmm,20.0,3.0,288.34997582035700,8.31920524994657,-8.150333833000000,-3.6877811192500000
mp-1079021,YbCeS3,['icsd-622073'],Orthorhombic,Cmcm,63.0,mmm,10.0,3.0,235.9486746170200,5.761789749869140,-6.168615331,-2.192205923875
mp-684004,YbCeS3,['icsd-173040'],Orthorhombic,Pnma,62.0,mmm,60.0,3.0,1352.3179206530700,6.031806430164070,-6.136936224000000,-2.1605268168750000
mp-20764,YbCeSe3,['icsd-99666'],Orthorhombic,Cmcm,63.0,mmm,10.0,3.0,270.4801117518830,6.753592788176880,-5.616220937,-2.0241345634062500
mp-755213,YbCO3,,Orthorhombic,Pnma,62.0,mmm,20.0,3.0,206.742141293051,7.487332780008580,-7.9366646995,-2.8149967182500000
mp-758329,YbCO3,,Orthorhombic,Pnma,62.0,mmm,20.0,3.0,236.99460385553800,6.531571547747960,-7.8870612275,-2.7653932462500000
mp-687081,YbCoO3,['icsd-172051'],Orthorhombic,Pnma,62.0,mmm,20.0,3.0,191.9333763645700,9.688850323665110,-6.878148291,-2.1805498492500000
mp-1187572,YbCrO3,,Cubic,Pm-3m,221.0,m-3m,5.0,3.0,53.91012357350050,8.409999673876550,-7.882208520000000,-2.6756641432500000
mp-1207582,YbCrO3,['icsd-251105'],Orthorhombic,Pnma,62.0,mmm,20.0,3.0,200.81078958020800,9.031070942344810,-8.024203040500000,-2.817658663750000
mp-1187562,YbCuO3,,Cubic,Pm-3m,221.0,m-3m,5.0,3.0,52.55835402207380,8.99120968740075,-5.976652408,-1.8808761912500000
mp-1215722,YbDyS3,,Orthorhombic,Pnma,62.0,mmm,20.0,3.0,437.6327749080160,6.552642992236910,-5.7435664785,-2.032417534375
mp-1187715,YbEuO3,,Cubic,Pm-3m,221.0,m-3m,5.0,3.0,74.69947171208390,8.29168815831867,-7.801571602,-2.47423635925
mp-19793,YbFeO3,"['icsd-27284', 'icsd-189735']",Orthorhombic,Pnma,62.0,mmm,20.0,3.0,200.99788721902800,9.149854793930310,-7.3898156325,-2.4198765077500000
mp-1187561,YbGaO3,,Cubic,Pm-3m,221.0,m-3m,5.0,3.0,56.52080171735540,8.542347542519730,-6.351725282,-2.4701711947500000
mp-1207537,YbGaO3,,Orthorhombic,Pnma,62.0,mmm,20.0,3.0,223.88093980013700,8.626376717598540,-6.4331603705,-2.551606283250000
mp-1215815,YbGdS3,,Orthorhombic,Pnma,62.0,mmm,20.0,3.0,442.55604245999800,6.400952068192940,-7.678377031000000,-2.0733610068750000
mp-1215831,YbGdS3,,Orthorhombic,Pnma,62.0,mmm,20.0,3.0,451.98635890553500,6.267401569673600,-7.673731156,-2.068715131875
mp-865758,YbGeO3,,Cubic,Pm-3m,221.0,m-3m,5.0,3.0,49.99877572728480,9.753521301575490,-6.966526748,-2.7659862942500000
mp-1018646,YbH3Pd,['icsd-638422'],Cubic,Pm-3m,221.0,m-3m,5.0,3.0,48.91958883699780,9.58870321570736,-3.953013404,-0.5734797590000000
mp-780387,YbHfO3,,Orthorhombic,Pnma,62.0,mmm,20.0,3.0,242.49392848775600,10.943485281395400,-9.239259488,-3.971886799250000
mp-1205559,YbInBr3,,Orthorhombic,Cmcm,63.0,mmm,10.0,3.0,318.72381283623500,5.497239679523350,-3.6973090490000000,-1.9072336490000000
mp-1187569,YbInO3,,Cubic,Pm-3m,221.0,m-3m,5.0,3.0,69.92714439586600,7.9754771294907000,-5.8906581000000000,-2.0643864712500000
mp-1358047,YBiO3,,Hexagonal,P6_3cm,185.0,6mm,30.0,3.0,495.54932666808300,6.95415706383339,-7.726286742,-2.696881466583330
mp-1406000,YBiO3,,Hexagonal,P6_3/mmc,194.0,6/mmm,10.0,3.0,168.4330736052440,6.819974598344830,-7.691130482,-2.6617252065833300
mp-768221,YBiO3,,Trigonal,R3c,161.0,3m,10.0,3.0,160.11286607696200,7.174372126701880,-7.81337911,-2.783973834583330
mp-1369528,YBiO3,,Orthorhombic,Pnma,62.0,mmm,20.0,3.0,313.81074651439200,7.3210321588284100,-7.680666606,-2.6512613305833300
mp-754152,YBiO3,,Trigonal,R-3,148.0,-3,10.0,3.0,159.81620942451200,7.18768945681628,-7.798726501,-2.769321225583330
mp-1424898,YBiO3,,Cubic,Pm-3m,221.0,m-3m,5.0,3.0,85.68108313135830,6.703400806382280,-6.747321852000000,-1.717916576583330
mp-972160,YbMgO3,,Cubic,Pm-3m,221.0,m-3m,5.0,3.0,58.70979239693700,6.939250705746190,-5.951151506,-2.35516061325
mp-1232165,YbMgS3,,Monoclinic,C2/m,12.0,2/m,20.0,3.0,518.6594002397550,3.759188688256240,-4.458950698000000,-1.3491031118750000
mp-1232238,YbMgS3,,Trigonal,R-3,148.0,-3,10.0,3.0,214.14233244397000,4.5524360554660700,-4.405006483,-1.2951588968750000
mp-1237978,YbMgS3,,Monoclinic,C2/m,12.0,2/m,20.0,3.0,422.64860974244500,4.613143177324520,-4.4830388235,-1.3731912373750000
mp-1232390,YbMgSe3,,Trigonal,R-3,148.0,-3,30.0,3.0,766.8950824743750,5.641300297829030,-3.971087465333330,-1.2455629127395800
mp-1232146,YbMgSe3,,Monoclinic,C2/m,12.0,2/m,20.0,3.0,593.3294706945790,4.861026541292780,-3.9597626480000000,-1.2342380954062500
mp-1237340,YbMgSe3,,Monoclinic,C2/m,12.0,2/m,10.0,3.0,248.61226440915400,5.800579290872950,-4.048123407,-1.32259885440625
mp-22518,YbMnO3,"['icsd-171760', 'icsd-162210', 'icsd-171759']",Orthorhombic,Pnma,62.0,mmm,20.0,3.0,197.5789775819770,9.277694254408900,-7.811913688,-2.703575746836210
mp-19356,YbMnO3,"['icsd-174277', 'icsd-279601', 'icsd-163248', 'icsd-162203', 'icsd-69539', 'icsd-160749']",Hexagonal,P6_3cm,185.0,6mm,30.0,3.0,374.3951624583630,7.3441547684586600,-7.603186602000000,-2.494848660836210
mp-1187578,YbNbO3,,Cubic,Pm-3m,221.0,m-3m,5.0,3.0,63.82780586260890,8.16755695722142,-8.468985888,-3.1727899972500000
mp-1187576,YbNdO3,,Cubic,Pm-3m,221.0,m-3m,5.0,3.0,72.14559900703010,8.407471151446900,-6.9424378,-2.71287343075
mp-560374,YbNdS3,"['icsd-645883', 'icsd-660173', 'icsd-2062']",Orthorhombic,Cmcm,63.0,mmm,10.0,3.0,244.8408227020820,5.608498648740480,-5.764931725,-2.0215106623750000
mp-11787,YbNdSe3,['icsd-99668'],Orthorhombic,Cmcm,63.0,mmm,10.0,3.0,277.10705780643200,6.641531670174810,-5.2694440150000000,-1.9103459859062500
mp-1018647,YbNiH3,['icsd-638405'],Cubic,Pm-3m,221.0,m-3m,5.0,3.0,40.13592388402700,9.712584070639770,-4.168544132000000,-0.6689595129999990
mp-1187595,YbNiO3,,Cubic,Pm-3m,221.0,m-3m,5.0,3.0,51.88856429991840,8.951977304241090,-6.329997616,-1.8980353972500000
mp-19249,YbNiO3,"['icsd-189299', 'icsd-151949', 'icsd-189292', 'icsd-92050', 'icsd-189293', 'icsd-189294', 'icsd-189298', 'icsd-189297']",Orthorhombic,Pnma,62.0,mmm,20.0,3.0,192.09456092614100,9.6724289896188,-6.411270301500000,-1.9793080827500000
mp-1100874,YBO3,,Orthorhombic,Pnma,62.0,mmm,20.0,3.0,248.2914312338090,3.9515920469892200,-9.092416329000000,-3.495230525416670
mp-1100876,YBO3,,Orthorhombic,Ama2,40.0,mm2,10.0,3.0,123.10561187227900,3.984978548406960,-9.052236671,-3.4550508674166700
mp-1216067,YBO3,,Orthorhombic,Cmcm,63.0,mmm,10.0,3.0,125.23366719974500,3.9172630928158500,-9.078990353,-3.4818045494166700
mp-29205,YBO3,"['icsd-44162', 'icsd-100015']",Orthorhombic,Cmcm,63.0,mmm,30.0,3.0,327.0097545684280,4.500537512836400,-9.128732909666670,-3.5315471060833300
mp-760457,YBO3,,Orthorhombic,Ama2,40.0,mm2,10.0,3.0,121.2254944061880,4.0467826087455600,-9.043673593,-3.446487789416670
mp-1187570,YbPdO3,,Cubic,Pm-3m,221.0,m-3m,5.0,3.0,60.86657526310350,8.933591736154970,-6.007689812000000,-1.69577856725
mp-1207533,YbPrO3,,Orthorhombic,Pnma,62.0,mmm,20.0,3.0,303.46644434937500,7.922130899280520,-7.4260813415,-3.1939653077500000
mp-1079995,YbPrS3,['icsd-649302'],Orthorhombic,Cmcm,63.0,mmm,10.0,3.0,247.49293513343400,5.503655228272780,-5.765486371,-2.019513643875
mp-11786,YbPrSe3,['icsd-99667'],Orthorhombic,Cmcm,63.0,mmm,10.0,3.0,280.1979082381150,6.528748465967660,-5.273157256,-1.9115075624062500
mp-1187480,YbPtO3,,Cubic,Pm-3m,221.0,m-3m,5.0,3.0,62.35177910646510,11.082076237146100,-6.198825088,-1.7086635412500000
mp-1187542,YbPuO3,,Cubic,Pm-3m,221.0,m-3m,5.0,3.0,79.85085381486670,9.67070559260035,-9.359896624,-3.2303940752500000
mp-1187535,YbReO3,,Cubic,Pm-3m,221.0,m-3m,5.0,3.0,60.660794681187200,11.14800041508620,-8.214844722000000,-2.4500044022500000
mp-1207518,YbRhO3,,Orthorhombic,Pnma,62.0,mmm,20.0,3.0,215.20065822473400,9.99850416195661,-7.0313681245,-2.2825716677500000
mp-1187493,YbScO3,,Cubic,Pm-3m,221.0,m-3m,5.0,3.0,66.36588072624990,6.655432123073920,-7.705651406000000,-3.1632227022500000
mp-1187516,YbSiO3,,Cubic,Pm-3m,221.0,m-3m,5.0,3.0,43.77570241912950,9.44998283077612,-7.79304712,-3.4320486312500000
mp-752596,YbSmO3,,Orthorhombic,Pna2_1,33.0,mm2,20.0,3.0,296.646228814901,8.315915194050710,-7.470651125000000,-3.250999015250000
mp-11788,YbSmSe3,['icsd-99669'],Orthorhombic,Cmcm,63.0,mmm,10.0,3.0,272.3003834004550,6.833386105567230,-5.256558892,-1.9073731224062500
mp-1187515,YbSnO3,,Cubic,Pm-3m,221.0,m-3m,5.0,3.0,65.53247144720570,8.608940673960900,-6.669144178000000,-2.591294924250000
mp-1187479,YbTaO3,,Cubic,Pm-3m,221.0,m-3m,5.0,3.0,64.1596846244388,10.403941259635400,-8.94258821,-3.2950978012500000
mp-1187518,YbTcO3,,Cubic,Pm-3m,221.0,m-3m,5.0,3.0,59.45933150596870,8.909878086748490,-7.85670274,-2.50864006825
mp-753164,YbTiO3,,Trigonal,R-3,148.0,-3,10.0,3.0,121.15370094544400,7.371257936444900,-8.538106728000000,-3.683073441916670
mp-754225,YbTiO3,,Orthorhombic,Pnma,62.0,mmm,20.0,3.0,215.00255770862600,8.307391215634300,-8.58921781,-3.734184523916670
mp-865218,YbTiO3,,Cubic,Pm-3m,221.0,m-3m,5.0,3.0,57.20373903582610,7.805916140066130,-8.491997762,-3.636964475916670
mp-1206321,YbTlBr3,,Orthorhombic,Cmcm,63.0,mmm,10.0,3.0,318.90434851827500,6.426862974991290,-3.7137673710000000,-2.001500087666670
mp-972058,YbTmO3,,Cubic,Pm-3m,221.0,m-3m,5.0,3.0,76.31291428983630,8.485646600281890,-7.19836871,-3.0272667425833300
mp-703673,YbVO3,"['icsd-97784', 'icsd-185840', 'icsd-97783']",Orthorhombic,Pnma,62.0,mmm,20.0,3.0,205.66391227117300,8.783902089281650,-8.210997373000000,-3.1182812762500000
mp-1187485,YbWO3,,Cubic,Pm-3m,221.0,m-3m,5.0,3.0,65.56031918372840,10.25492365939480,-8.319799556000000,-2.4522386272500000
mp-1187797,YbZnO3,,Cubic,Pm-3m,221.0,m-3m,5.0,3.0,56.25730419802640,8.45502238151807,-5.47792792,-1.9500443152500000
mp-1273178,YCoO3,,Triclinic,P-1,2.0,-1,20.0,3.0,226.93867728566600,5.731863777604830,-8.277534488500000,-2.594563480083330
mp-1387356,YCoO3,,Hexagonal,P6_3/mmc,194.0,6/mmm,10.0,3.0,128.09699479242500,5.077330604746490,-8.182845361,-2.4998743525833300
mp-22668,YCoO3,"['icsd-155838', 'icsd-155835', 'icsd-155834', 'icsd-155836', 'icsd-155837']",Orthorhombic,Pnma,62.0,mmm,20.0,3.0,205.82626822115900,6.319803566926550,-8.2884854835,-2.6055144750833300
mp-1435972,YCoO3,,Cubic,Pm-3m,221.0,m-3m,5.0,3.0,54.26048474581900,5.993226885848510,-8.058154954000000,-2.3751839455833300
mp-1288734,YCoO3,,Monoclinic,P2_1/c,14.0,2/m,20.0,3.0,225.35994112535500,5.772017766670040,-8.273725645500000,-2.590754637083330
mp-1330514,YCoO3,,Hexagonal,P6_3cm,185.0,6mm,30.0,3.0,376.25813589890900,5.185728067900500,-8.266468037666670,-2.5834970292500000
mp-18725,YCrO3,"['icsd-185525', 'icsd-109352', 'icsd-251107', 'icsd-236372', 'icsd-192859']",Orthorhombic,Pnma,62.0,mmm,20.0,3.0,219.38031951097600,5.719311184536890,-9.3922170475,-3.2003001040833300
mp-18770,YCrO3,,Cubic,Pm-3m,221.0,m-3m,5.0,3.0,57.23928827956950,5.480083491421760,-9.088909482000000,-2.8969925385833300
mp-1387900,YCrO3,,Hexagonal,P6_3/mmc,194.0,6/mmm,10.0,3.0,129.79038974167100,4.83357942580998,-9.17906091,-2.987143966583330
mp-1336975,YCrO3,,Hexagonal,P6_3cm,185.0,6mm,30.0,3.0,385.45425811357700,4.882697318692060,-9.234290786333330,-3.042373842916670
mp-1432347,YCuO3,,Cubic,Pm-3m,221.0,m-3m,5.0,3.0,54.10253626517340,6.15230194191815,-7.299427534,-2.218278750583330