material_id,formula_pretty,icsd,crystal_system,symbol,number,point_group,nsites,nelements,volume,density,energy_per_atom,formation_energy_per_atom
mp-757915,LiAgF3,,Triclinic,P-1,2.0,-1,10.0,3.0,131.64188169136700,4.334303495050330,-4.154393917,-2.0592107625000000
mp-760151,LiAgF3,,Hexagonal,P6_122,178.0,622,30.0,3.0,389.1063099468660,4.399125791518080,-4.169314986,-2.0741318315
mp-1398557,LiAgF3,,Triclinic,P-1,2.0,-1,10.0,3.0,131.6418551877620,4.334304367680630,-3.303006144,-1.2078229895000000
mp-752837,LiAgF3,,Monoclinic,P2_1/c,14.0,2/m,20.0,3.0,259.4648183662870,4.398098142958340,-4.1754141885,-2.0802310340000000
mp-756821,LiAgF3,,Monoclinic,P2_1/c,14.0,2/m,20.0,3.0,243.25569683954300,4.691161401956900,-4.1527633185,-2.057580164
mp-752605,LiAgF3,,Monoclinic,C2/c,15.0,2/m,20.0,3.0,279.29293651428400,4.085859635628240,-4.174558318,-2.0793751635
mp-1185313,LiAlO3,,Cubic,Pm-3m,221.0,m-3m,5.0,3.0,51.03133026460130,2.665668053423010,-6.204398784,-2.1054858179166700
mp-9657,LiAsO3,['icsd-202862'],Trigonal,R-3,148.0,-3,10.0,3.0,94.39200396968980,4.569008444596070,-6.269220309,-1.987598827916670
mp-559767,LiAsO3,['icsd-16617'],Monoclinic,C2/c,15.0,2/m,20.0,3.0,229.1600080770350,3.7639888989258400,-6.233445392,-1.951823910916670
mp-24818,LiBeH3,['icsd-162775'],Triclinic,P-1,2.0,-1,20.0,3.0,175.24459069597400,0.7192702054379650,-3.490937505,-0.32563473166666700
mp-977298,LiBeH3,['icsd-162772'],Monoclinic,C2/c,15.0,2/m,20.0,3.0,154.36249672370600,0.8165727778904710,-3.4789126680000000,-0.3136098946666660
mp-24817,LiBeH3,['icsd-162771'],Triclinic,P-1,2.0,-1,30.0,3.0,240.92685775587500,0.7847706183063230,-3.494190199333330,-0.328887426
mp-1079676,LiBeH3,['icsd-162774'],Monoclinic,C2,5.0,2,10.0,3.0,90.21956436586640,0.6985636299496160,-3.4883234530000000,-0.3230206796666660
mp-24342,LiBeH3,['icsd-173447'],Orthorhombic,Pnma,62.0,mmm,20.0,3.0,124.61285701070100,1.011518520444170,-3.3899778135,-0.22467504016666700
mp-977148,LiBeH3,['icsd-162773'],Orthorhombic,Cmcm,63.0,mmm,30.0,3.0,247.51939548407000,0.7638687011089060,-3.4892464823333300,-0.323943709
mp-570218,LiBeH3,['icsd-162770'],Monoclinic,P2_1/c,14.0,2/m,60.0,3.0,485.255000416245,0.7792699465868230,-3.4942290168333300,-0.32892624350000000
mp-982975,LiBeO3,,Cubic,Pm-3m,221.0,m-3m,5.0,3.0,43.1416576665112,2.461513393735290,-5.445053,-1.3473726269166700
mp-29077,LiBiO3,['icsd-82277'],Orthorhombic,Pccn,56.0,mmm,40.0,3.0,473.461939007118,7.405010120314770,-5.76386697175,-1.645971345666670
mp-1185302,LiBO3,,Cubic,Pm-3m,221.0,m-3m,5.0,3.0,36.18478119222370,3.0173120339394800,-5.925629018,-1.2399528637500000
mp-1197831,LiBrO3,['icsd-4323'],Orthorhombic,Pbca,61,mmm,40,3,619.949427557576,2.88942796314865,-4.20121256425,-0.540809098166667
mp-1017626,LiCaF3,"['icsd-236756', 'icsd-236757']",Cubic,Pm-3m,221.0,m-3m,5.0,3.0,53.210154981331200,3.2459905178423100,-5.543299104,-3.6135071741666700
mp-1079935,LiCaH3,['icsd-168713'],Trigonal,R-3c,167.0,-3m,10.0,3.0,97.42053789603400,1.7059658960518800,-3.3996828280000000,-0.5811426516666670
mp-975333,LiCaO3,,Cubic,Pm-3m,221.0,m-3m,5.0,3.0,53.99772204566960,2.921970902133620,-5.401248822,-1.650331045916670
mp-1185203,LiCdO3,,Cubic,Pm-3m,221.0,m-3m,5.0,3.0,53.231081072507100,5.220475318260050,-4.218561136,-0.6841853839166670
mp-973613,LiCeO3,,Cubic,Pm-3m,221.0,m-3m,5.0,3.0,49.97266406711710,6.481479140444840,-7.08321141,-2.546795778916670
mp-759500,LiCoF3,,Triclinic,P1,1.0,1,15.0,3.0,171.61047271394700,3.566730687263,-5.539686688000000,-2.5893511751666700
mp-764370,LiCoF3,,Trigonal,P3,143.0,3,15.0,3.0,172.2611484222780,3.553258206453400,-5.539011968,-2.588676455166670
mp-1185311,LiCrO3,,Cubic,Pm-3m,221.0,m-3m,5.0,3.0,49.7945631362843,3.5660568556971400,-6.947906294000000,-1.667498999916670
mp-760814,LiCuF3,,Orthorhombic,Amm2,38.0,mm2,20.0,3.0,226.77268827836000,3.7339450521033400,-4.630067146,-2.2815538581666700
mp-758052,LiCuF3,,Trigonal,R3c,161.0,3m,10.0,3.0,100.69027687579700,4.204759305576490,-4.691166396,-2.3426531081666700
mp-753405,LiCuF3,,Monoclinic,P2_1/c,14.0,2/m,20.0,3.0,223.78167295817700,3.783852118700580,-4.6835011735,-2.334987885666670
mp-761262,LiCuF3,,Triclinic,P1,1.0,1,20.0,3.0,226.35658836777900,3.7408089751439800,-4.673167987,-2.324654699166670
mp-761897,LiCuF3,,Hexagonal,P6_122,178.0,622,30.0,3.0,323.59462028929900,3.925081124303660,-4.661257459666670,-2.312744171833330
mp-1185308,LiDyO3,,Cubic,Pm-3m,221.0,m-3m,5.0,3.0,49.620450663239900,7.276562009900040,-6.5320600000000000,-2.2609048319166700
mp-1185310,LiErO3,,Cubic,Pm-3m,221.0,m-3m,5.0,3.0,48.84467197755940,7.553920963942890,-6.500061526000000,-2.2367199639166700
mp-541365,LiEuH3,"['icsd-53429', 'icsd-90297', 'icsd-416461']",Cubic,Pm-3m,221.0,m-3m,5.0,3.0,51.341548704283800,5.237261796818450,-5.088068700000000,-0.6192481396666670
mp-1185344,LiEuO3,,Cubic,Pm-3m,221.0,m-3m,5.0,3.0,53.30408940567630,6.445487587073690,-7.397550944,-1.9963527839166700
mp-777683,LiFeF3,,Tetragonal,I4_1/a,88.0,4/m,80.0,3.0,910.0690274790990,3.4969018301631400,-5.935950602,-2.7132744061666700
mp-754707,LiFeF3,,Monoclinic,C2/c,15.0,2/m,20.0,3.0,263.5711655828220,3.018560509767180,-5.9850982385,-2.7624220426666700
mp-777888,LiFeF3,,Trigonal,R3,146.0,3,20.0,3.0,228.6063995238230,3.480241645023160,-6.008078518,-2.7854023221666700
mp-755103,LiFeF3,,Monoclinic,C2/m,12.0,2/m,20.0,3.0,246.41519718834500,3.2287193363869500,-5.9467939385,-2.7241177426666700
mp-776077,LiFeF3,,Monoclinic,P2_1/c,14.0,2/m,40.0,3.0,506.00327496617400,3.1446654648422800,-6.003502576,-2.7808263801666700
mp-780803,LiFeF3,,Orthorhombic,Pbca,61.0,mmm,80.0,3.0,1017.8541753478800,3.1265991974525700,-6.005163933125,-2.7824877372916700
mp-1176718,LiFeF3,,Triclinic,P-1,2.0,-1,30.0,3.0,369.94238490831400,3.2259300815401000,-5.961999351666670,-2.7393231558333300
mp-1176705,LiFeF3,,Orthorhombic,Cmcm,63.0,mmm,20.0,3.0,241.2547621212190,3.2977815855168900,-5.9753444875,-2.7526682916666700
mp-1176706,LiFeF3,,Orthorhombic,Pbcm,57.0,mmm,20.0,3.0,234.24409766643400,3.396480508441940,-6.0108924555000000,-2.7882162596666700
mp-754051,LiFeF3,,Trigonal,R-3,148.0,-3,10.0,3.0,112.61426282858200,3.532436708983560,-5.797996269,-2.5753200731666700
mp-755575,LiFeF3,,Orthorhombic,Pnma,62.0,mmm,20.0,3.0,242.2023678018630,3.2848791659727700,-5.948791043,-2.7261148471666700
mp-754581,LiFeF3,,Orthorhombic,Pnma,62.0,mmm,20.0,3.0,237.40632156159800,3.3512397930616200,-5.9623874185,-2.7397112226666700
mp-776604,LiFeF3,,Triclinic,P-1,2.0,-1,60.0,3.0,682.9335100050310,3.494947166682820,-5.9768614095000000,-2.7541852136666700
mp-755179,LiFeF3,,Monoclinic,P2_1/m,11.0,2/m,10.0,3.0,122.94142328847300,3.2357097008499000,-5.94359481,-2.720918614166670
mp-754816,LiFeF3,,Orthorhombic,Pnma,62.0,mmm,20.0,3.0,225.31518513743300,3.531078082714770,-6.004866095,-2.7821898991666700
mp-754994,LiFeF3,,Monoclinic,C2/c,15.0,2/m,20.0,3.0,246.4648568403220,3.2280687889594800,-5.9892529585,-2.7665767626666700
mp-761166,LiFeF3,,Monoclinic,Cc,9.0,m,10.0,3.0,113.16457889730100,3.515258571604990,-6.02037269,-2.7976964941666700
mp-755136,LiFeF3,,Orthorhombic,Cmcm,63.0,mmm,10.0,3.0,102.62580235865900,3.8762450263780100,-5.956579181,-2.7339029851666700
mp-1176709,LiFeF3,,Cubic,P2_13,198.0,23,20.0,3.0,230.63589790451800,3.4496169901139500,-5.988241202000000,-2.7655650061666700
mp-777622,LiFeF3,,Triclinic,P1,1.0,1,20.0,3.0,239.5548928975200,3.3211824743732800,-5.9928160375,-2.7701398416666700
mp-777899,LiFeF3,,Orthorhombic,Pnma,62.0,mmm,20.0,3.0,256.31748984224300,3.103984485925200,-5.977178673,-2.7545024771666700
mp-756113,LiFeF3,,Triclinic,P-1,2.0,-1,20.0,3.0,245.39499242053000,3.2421424092395200,-6.000458599,-2.777782403166670
mp-776080,LiFeF3,,Orthorhombic,Pccn,56.0,mmm,40.0,3.0,460.83351136849000,3.4528978136984100,-6.01597288775,-2.793296691916670
mp-776017,LiFeF3,,Orthorhombic,Pbcn,60.0,mmm,40.0,3.0,534.3840404179250,2.9776544648279300,-5.9937186855,-2.7710424896666700
mp-1176698,LiFeF3,,Orthorhombic,C222_1,20.0,222,10.0,3.0,108.89442933246500,3.653104740154130,-6.008428476,-2.7857522801666700
mp-1176724,LiFeF3,,Triclinic,P-1,2.0,-1,90.0,3.0,1154.4352068978900,3.1012782548080400,-5.853118423555560,-2.6304422277222200
mp-775760,LiFeF3,,Triclinic,P-1,2.0,-1,50.0,3.0,641.2963371903870,3.1015517546352900,-5.9597592778,-2.737083081966670
mp-776027,LiFeF3,,Tetragonal,P4_2/n,86.0,4/m,40.0,3.0,473.5403247878110,3.360243976257420,-5.9517590205,-2.7290828246666700
mp-1097043,LiFeF3,,Tetragonal,I4/mcm,140.0,4/mmm,10.0,3.0,124.85667848041900,3.186075112779740,-5.86642065,-2.6437444541666700
mp-780639,LiFeF3,,Monoclinic,P2_1/m,11.0,2/m,10.0,3.0,117.40262695151000,3.3883633296817600,-6.012686197,-2.7900100011666700
mp-777489,LiFeF3,,Trigonal,R-3,148.0,-3,30.0,3.0,477.3069827255180,2.500295011604100,-5.951899718333330,-2.7292235225000000
mp-777470,LiFeF3,,Trigonal,R-3c,167.0,-3m,30.0,3.0,349.0622971710540,3.41889765117658,-5.831450833000000,-2.608774637166670
mp-1407616,LiFeF3,,Orthorhombic,Cmmm,65.0,mmm,10.0,3.0,121.13969386561500,3.283834912213860,-5.4771706600000000,-2.2544944641666700
mp-760354,LiFeF3,,Triclinic,P1,1.0,1,15.0,3.0,180.53201057788400,3.3052539106286800,-5.952500942,-2.7298247461666700
mp-1446564,LiFeF3,,Hexagonal,P6_322,182.0,622,10.0,3.0,108.89513819538400,3.653080959932790,-5.629792561,-2.4071163651666700
mp-777522,LiFeF3,,Orthorhombic,Cmc2_1,36.0,mm2,10.0,3.0,117.0124832668620,3.399660829892530,-6.021427504,-2.798751308166670
mp-776524,LiFeF3,,Triclinic,P-1,2.0,-1,70.0,3.0,894.2419469688560,3.113943940154510,-5.967386935857140,-2.7447107400238100
mp-756109,LiFeF3,,Orthorhombic,Pnma,62.0,mmm,20.0,3.0,217.7291806259030,3.654106030503100,-5.9810104775,-2.7583342816666700
mp-777672,LiFeF3,,Orthorhombic,Amm2,38.0,mm2,10.0,3.0,121.13866971366200,3.283862674991410,-5.9752016050000000,-2.7525254091666700
mp-776026,LiFeF3,,Tetragonal,P4_2/n,86.0,4/m,40.0,3.0,481.6491405467990,3.3036725074953500,-5.94305345475,-2.720377258916670
mp-1176707,LiFeF3,,Triclinic,P-1,2.0,-1,30.0,3.0,388.7074202788240,3.070196774366620,-5.971748182333330,-2.7490719865000000
mp-760833,LiFeO3,,Monoclinic,Cm,8.0,m,60.0,3.0,633.7258103762580,3.4834274833049100,-6.4781542226666700,-1.4343521805833300
mp-756941,LiFeO3,,Orthorhombic,Pnna,52.0,mmm,20.0,3.0,197.85461430432800,3.7191246250960700,-6.4609133395,-1.4171112974166700
mp-761189,LiFeO3,,Monoclinic,C2/m,12.0,2/m,10.0,3.0,96.44365165026530,3.8149010103667500,-6.177499294,-1.1336972519166700
mp-1185320,LiFeO3,,Cubic,Pm-3m,221.0,m-3m,5.0,3.0,53.878919459443500,3.4143500632098200,-6.294544592000000,-1.2507425499166700
mp-752790,LiFeO3,,Monoclinic,C2/m,12.0,2/m,10.0,3.0,108.3022062613330,3.3971882644408800,-6.437056763000000,-1.393254720916670
mp-752521,LiFeO3,,Monoclinic,C2/c,15.0,2/m,20.0,3.0,204.41876740507500,3.5996986851503900,-6.462050524,-1.4182484819166700
mp-28327,LiGaBr3,['icsd-61338'],Monoclinic,P2_1/m,11.0,2/m,20.0,3.0,548.321490832187,3.8324575382760300,-3.3890122485,-1.4697914726666700
mp-29344,LiGaCl3,['icsd-202641'],Orthorhombic,Pnma,62.0,mmm,40.0,3.0,894.6761596930000,2.717558421948950,-3.8109465512500000,-1.714420777416670
mp-29345,LiGaI3,['icsd-202642'],Monoclinic,P2_1/m,11.0,2/m,20.0,3.0,701.2367235116270,4.33230623565728,-2.9085826215,-1.0371590336666700
mp-1185401,LiGdO3,,Cubic,Pm-3m,221.0,m-3m,5.0,3.0,50.79737479231590,6.936351682565700,-8.42768986,-2.262667611916670
mp-1185303,LiGeO3,,Cubic,Pm-3m,221.0,m-3m,5.0,3.0,51.781045338759300,4.091270160724230,-5.94324491,-1.6688415389166700
mp-973818,LiHoO3,,Cubic,Pm-3m,221.0,m-3m,5.0,3.0,49.15097044898060,7.428173323527170,-6.51461901,-2.248339435916670
mp-555562,LiIO3,['icsd-20032'],Tetragonal,P4_2/n,86,4/m,40,3,674.129674681057,3.58338793724552,-4.89320181925,-1.24873074916667
mp-22955,LiIO3,"['icsd-35475', 'icsd-35476', 'icsd-80026', 'icsd-35473', 'icsd-35472', 'icsd-80025', 'icsd-35474', 'icsd-9508', 'icsd-14377', 'icsd-14344']",Hexagonal,P6_3,173,6,10,3,131.047417289717,4.60838564076932,-5.032257208,-1.38778613791667
mp-1080052,LiIO3,['icsd-26738'],Hexagonal,P6_3/mmc,194,6/mmm,10,3,99.6534535951193,6.0601716680235,-4.173756575,-0.529285504916667
mp-545343,LiIO3,['icsd-20012'],Hexagonal,P6_322,182,622,10,3,114.01919138785,5.29662619728237,-4.790766707,-1.14629563691667
mp-23384,LiIO3,"['icsd-2642', 'icsd-201816']",Tetragonal,P4_2/n,86,4/m,40,3,567.168717752546,4.25917027646313,-5.0412755685,-1.39680449841667
mp-22994,LiIO3,"['icsd-201817', 'icsd-41199']",Orthorhombic,Pna2_1,33,mm2,20,3,280.602850071686,4.30442553198268,-5.0364681825,-1.39199711241667
mp-1180548,LiIO3,,Orthorhombic,Cmcm,63,mmm,10,3,159.84612568357,3.77811494345096,-4.702256962,-1.05778589191667
mp-1185357,LiLaO3,,Cubic,Pm-3m,221.0,m-3m,5.0,3.0,55.858268996912000,5.76256037230548,-6.721507272000000,-2.3845080509166700
mp-976331,LiLuO3,,Cubic,Pm-3m,221.0,m-3m,5.0,3.0,47.824162242947300,7.9827478171842400,-6.447261758000000,-2.193273853916670
mp-23736,LiMgH3,"['icsd-181326', 'icsd-159173']",Trigonal,R3c,161.0,3m,10.0,3.0,92.74378492412480,1.227173873956210,-3.103539746,-0.3660635356666670
mp-1185356,LiMgO3,,Cubic,Pm-3m,221.0,m-3m,5.0,3.0,62.56273528519410,2.10329822220233,-4.987464342,-1.3176105319166700
mp-758779,LiMnF3,,Trigonal,P3,143.0,3,30.0,3.0,356.56221986689500,3.3216420491763100,-6.376579277333330,-3.015504265086210
mp-759048,LiMnF3,,Triclinic,P-1,2.0,-1,90.0,3.0,1192.9893344488500,2.9783302208766900,-6.340042525111110,-2.9789675128639900
mp-760095,LiMnF3,,Trigonal,P-3,147.0,-3,30.0,3.0,378.3071030561870,3.130715900096710,-6.314641766333330,-2.9535667540862100
mp-1176631,LiMnF3,,Orthorhombic,Pmma,51.0,mmm,10.0,3.0,122.91408651380700,3.211923862837000,-6.374038946000000,-3.012963933752870
mp-859873,LiMnF3,,Hexagonal,P6_3/mmc,194.0,6/mmm,10.0,3.0,178.23643141457600,2.214983123367360,-6.31590179,-2.9548267777528700
mp-765090,LiMnF3,,Triclinic,P-1,2.0,-1,40.0,3.0,486.47047624166400,3.2461635953947500,-6.309294974000000,-2.9482199617528700
mp-758456,LiMnF3,,Orthorhombic,Cmcm,63.0,mmm,10.0,3.0,116.86376712032400,3.378212916463920,-6.3063770440000000,-2.945302031752870
mp-776156,LiMnF3,,Cubic,P2_13,198.0,23,20.0,3.0,239.30355142081700,3.2994971048989300,-6.362736642,-3.001661629752870
mp-763149,LiMnF3,,Cubic,P2_13,198.0,23,20.0,3.0,243.074602220817,3.2483088232629800,-6.375878756500000,-3.0148037442528700
mp-763362,LiMnF3,,Orthorhombic,Pna2_1,33.0,mm2,20.0,3.0,240.40487802350800,3.2843816714393300,-6.330681584,-2.969606571752870
mp-764783,LiMnF3,,Orthorhombic,Pnma,62.0,mmm,20.0,3.0,295.1345693104730,2.6753266381153800,-6.3178712595,-2.956796247252880
mp-762988,LiMnF3,,Monoclinic,Cc,9.0,m,20.0,3.0,251.84407229309400,3.1351993633033100,-6.3094670100000000,-2.948391997752870
mp-777972,LiMnF3,,Orthorhombic,Pna2_1,33.0,mm2,40.0,3.0,496.5098535132230,3.180526507250840,-6.3812011042500000,-3.0201260920028700
mp-754676,LiMnF3,,Hexagonal,P6_322,182.0,622,10.0,3.0,113.94086423866400,3.4648735569143000,-6.383962293000000,-3.0228872807528700
mp-765457,LiMnF3,,Orthorhombic,Pnma,62.0,mmm,20.0,3.0,258.9370759337950,3.0493175697515800,-6.3687901235,-3.0077151112528700
mp-777352,LiMnF3,,Orthorhombic,Pbca,61.0,mmm,80.0,3.0,1054.1474032690600,2.996094749771860,-6.3698282155,-3.008753203252870
mp-778819,LiMnF3,,Orthorhombic,Amm2,38.0,mm2,10.0,3.0,127.30875709250600,3.101048950353380,-6.3331525740000000,-2.9720775617528700
mp-774399,LiMnF3,,Triclinic,P-1,2.0,-1,50.0,3.0,661.7984887208630,2.982710706362960,-6.3295171656,-2.968442153352870
mp-1176635,LiMnF3,,Orthorhombic,Cmcm,63.0,mmm,10.0,3.0,103.98842920962500,3.796486691386330,-6.341437138000000,-2.9803621257528700
mp-754770,LiMnF3,,Monoclinic,P2_1/c,14.0,2/m,20.0,3.0,269.7844974731700,2.9267114400579700,-6.337088572000000,-2.9760135597528700
mp-1176636,LiMnF3,,Orthorhombic,Cmcm,63.0,mmm,20.0,3.0,253.7839876421480,3.1112340161444000,-6.332934342500000,-2.9718593302528700
mp-1176632,LiMnF3,,Orthorhombic,Pnma,62.0,mmm,20.0,3.0,234.25534236895300,3.3706013579892000,-6.364553785,-3.0034787727528700
mp-777298,LiMnF3,,Orthorhombic,Pbcn,60.0,mmm,40.0,3.0,553.9437556390790,2.850763699625380,-6.35977178375,-2.998696771502870
mp-763191,LiMnF3,,Orthorhombic,Ibam,72.0,mmm,20.0,3.0,255.2273736483220,3.093639070991600,-6.3054804785,-2.9444054662528700
mp-752938,LiMnF3,,Trigonal,R-3c,167.0,-3m,10.0,3.0,124.314426343666,3.175743147147820,-6.374343016,-3.0132680037528700
mp-752829,LiMnF3,,Trigonal,R-3,148.0,-3,10.0,3.0,118.32417853187700,3.336517459499200,-6.368059022,-3.006984009752870
mp-759042,LiMnF3,,Tetragonal,P4_2/n,86.0,4/m,40.0,3.0,490.9415900625840,3.216600064396110,-6.3306632355,-2.9695882232528700
mp-776951,LiMnF3,,Orthorhombic,Pnma,62.0,mmm,20.0,3.0,215.82661626550900,3.658405940691200,-6.3694095065,-3.008334494252870
mp-779317,LiMnF3,,Monoclinic,P2_1/c,14.0,2/m,60.0,3.0,803.4280426128700,2.948296548887610,-6.342484478666670,-2.981409466419540
mp-1176634,LiMnF3,,Orthorhombic,Cmc2_1,36.0,mm2,10.0,3.0,161.47407489331900,2.4449168562404600,-6.321410674000000,-2.9603356617528700
mp-1176630,LiMnF3,,Monoclinic,C2/c,15.0,2/m,20.0,3.0,252.1597564876360,3.131274340137360,-6.378835670000000,-3.0177606577528700
mp-778697,LiMnF3,,Orthorhombic,Pnma,62.0,mmm,40.0,3.0,441.1836538346780,3.579377287631300,-6.355703264250000,-2.9946282520028700
mp-759093,LiMnF3,,Orthorhombic,Pnna,52.0,mmm,20.0,3.0,244.86966838756600,3.2244964445956400,-6.3789965685,-3.017921556252870
mp-759538,LiMnF3,,Triclinic,P-1,2.0,-1,70.0,3.0,925.2028506676170,2.9869501708446200,-6.3370570950000000,-2.9759820827528700
mp-757275,LiMnF3,,Monoclinic,P2_1/c,14.0,2/m,40.0,3.0,521.2157011473790,3.0297681875924800,-6.33221721725,-2.9711422050028700
mp-759032,LiMnF3,,Monoclinic,P2_1/c,14.0,2/m,40.0,3.0,503.14100994923800,3.138608698124930,-6.31520345875,-2.9541284465028700
mp-763003,LiMnF3,,Trigonal,R-3,148.0,-3,30.0,3.0,491.78593982058500,2.408308100653740,-6.314515203333330,-2.9534401910862100
mp-1371141,LiMnF3,,Trigonal,P3c1,158.0,3m,30.0,3.0,356.5187030651740,3.3220474900050900,-6.376203399,-3.0151283867528700
mp-759492,LiMnF3,,Monoclinic,P2_1/c,14.0,2/m,40.0,3.0,527.3267746789630,2.9946568731910700,-6.3687888492500000,-3.0077138370028700
mp-777655,LiMnF3,,Monoclinic,C2/m,12.0,2/m,20.0,3.0,262.5736035238220,3.007085878049370,-6.3499353415,-2.988860329252870
mp-778633,LiMnF3,,Triclinic,P-1,2.0,-1,30.0,3.0,400.6969412754180,2.9557801436858300,-6.342207005333330,-2.9811319930862100
mp-779073,LiMnF3,,Trigonal,R-3c,167.0,-3m,30.0,3.0,359.9885776407320,3.2900267847929600,-6.3547667836666700,-2.9936917714195400
mp-759023,LiMnF3,,Tetragonal,I4_1/a,88.0,4/m,80.0,3.0,934.1590796201110,3.380928975934650,-6.346211247625,-2.985136235377870
mp-777355,LiMnF3,,Orthorhombic,Pccn,56.0,mmm,40.0,3.0,483.01332597530200,3.2693978929492000,-6.3872151407500000,-3.026140128502870
mp-756130,LiMnF3,,Trigonal,P-31c,163.0,-3m,20.0,3.0,250.2289217503160,3.15543610859212,-6.342193985500000,-2.9811189732528700
mp-753025,LiMnF3,,Hexagonal,P6_322,182.0,622,20.0,3.0,267.3342907015820,2.953535713779440,-6.3240310410000000,-2.962956028752880
mp-778800,LiMnF3,,Triclinic,P-1,2.0,-1,30.0,3.0,373.182076422699,3.1737110045874900,-6.332929427000000,-2.971854414752870
mp-1120793,LiMnO3,,Orthorhombic,Pnma,62.0,mmm,20.0,3.0,183.1548558590620,3.984725537242190,-6.8745640015000000,-1.692363143002880
mp-1078377,LiNbO3,['icsd-5309'],Trigonal,R-3,148.0,-3,10.0,3.0,117.21291827347100,4.189015426462620,-8.249632965,-2.879574156916670
mp-552588,LiNbO3,"['icsd-169693', 'icsd-90744', 'icsd-90743', 'icsd-169692', 'icsd-169694']",Trigonal,R-3c,167.0,-3m,10.0,3.0,111.44215867790800,4.405933343837940,-8.237331804,-2.867272995916670
mp-755559,LiNbO3,,Monoclinic,C2/m,12.0,2/m,10.0,3.0,125.0137888789660,3.9276205227540700,-8.215173666,-2.845114857916670
mp-685413,LiNbO3,,Triclinic,P1,1.0,1,130.0,3.0,1485.47115391595,4.297012015306150,-8.155162131692310,-2.785103323608980
mp-760701,LiNbO3,,Monoclinic,C2/c,15.0,2/m,20.0,3.0,252.98420898728400,3.8817183475111700,-8.234432636,-2.864373827916670
mp-676694,LiNbO3,,Triclinic,P1,1.0,1,60.0,3.0,669.8987539597190,4.397739687610720,-8.262324550333330,-2.892265742250000