# Thermal properties / unit cell (natom)

unit:
  temperature:   K
  free_energy:   kJ/mol
  entropy:       J/K/mol
  heat_capacity: J/K/mol

natom: 20   
cutoff_frequency:    0.000
num_modes: 30720
num_integrated_modes: 29716

zero_point_energy:      34.4589005
high_T_entropy:       2261.7274929

thermal_properties:
- temperature:         0.0000000
  free_energy:        34.4589005
  entropy:             0.0000000
  heat_capacity:       0.0000000
  energy:             34.4589005

- temperature:        10.0000000
  free_energy:        34.3988404
  entropy:            18.9434781
  heat_capacity:      40.2095572
  energy:             34.5882751

- temperature:        20.0000000
  free_energy:        33.9526085
  entropy:            74.4127620
  heat_capacity:     130.1358231
  energy:             35.4408637

- temperature:        30.0000000
  free_energy:        32.8748353
  entropy:           141.3994135
  heat_capacity:     200.6937839
  energy:             37.1168177

- temperature:        40.0000000
  free_energy:        31.1327849
  entropy:           206.2597505
  heat_capacity:     249.8813303
  energy:             39.3831749

- temperature:        50.0000000
  free_energy:        28.7664340
  entropy:           266.1584875
  heat_capacity:     286.8657993
  energy:             42.0743584

- temperature:        60.0000000
  free_energy:        25.8259032
  entropy:           321.1809025
  heat_capacity:     316.6359157
  energy:             45.0967574

- temperature:        70.0000000
  free_energy:        22.3571603
  entropy:           371.8974791
  heat_capacity:     341.2476741
  energy:             48.3899838

- temperature:        80.0000000
  free_energy:        18.4005175
  entropy:           418.8416249
  heat_capacity:     361.6923742
  energy:             51.9078475

- temperature:        90.0000000
  free_energy:        13.9914271
  entropy:           462.4535903
  heat_capacity:     378.6598164
  energy:             55.6122502

- temperature:       100.0000000
  free_energy:         9.1613220
  entropy:           503.1009406
  heat_capacity:     392.7364989
  energy:             59.4714161

- temperature:       110.0000000
  free_energy:         3.9382368
  entropy:           541.0983816
  heat_capacity:     404.4341998
  energy:             63.4590588

- temperature:       120.0000000
  free_energy:        -1.6527288
  entropy:           576.7196639
  heat_capacity:     414.1886281
  energy:             67.5536308

- temperature:       130.0000000
  free_energy:        -7.5890387
  entropy:           610.2046489
  heat_capacity:     422.3611030
  energy:             71.7375657

- temperature:       140.0000000
  free_energy:       -13.8504062
  entropy:           641.7640922
  heat_capacity:     429.2458332
  energy:             75.9965667

- temperature:       150.0000000
  free_energy:       -20.4185225
  entropy:           671.5833846
  heat_capacity:     435.0798637
  energy:             80.3189852

- temperature:       160.0000000
  free_energy:       -27.2768196
  entropy:           699.8257435
  heat_capacity:     440.0532551
  energy:             84.6952994

- temperature:       170.0000000
  free_energy:       -34.4102623
  entropy:           726.6350271
  heat_capacity:     444.3182490
  energy:             89.1176923

- temperature:       180.0000000
  free_energy:       -41.8051681
  entropy:           752.1382276
  heat_capacity:     447.9969923
  energy:             93.5797128

- temperature:       190.0000000
  free_energy:       -49.4490491
  entropy:           776.4476678
  heat_capacity:     451.1878091
  energy:             98.0760078

- temperature:       200.0000000
  free_energy:       -57.3304754
  entropy:           799.6629232
  heat_capacity:     453.9701918
  energy:            102.6021092

- temperature:       210.0000000
  free_energy:       -65.4389563
  entropy:           821.8724910
  heat_capacity:     456.4087283
  energy:            107.1542668

- temperature:       220.0000000
  free_energy:       -73.7648367
  entropy:           843.1552331
  heat_capacity:     458.5561760
  energy:            111.7293145

- temperature:       230.0000000
  free_energy:       -82.2992073
  entropy:           863.5816198
  heat_capacity:     460.4558653
  energy:            116.3245653

- temperature:       240.0000000
  free_energy:       -91.0338258
  entropy:           883.2147990
  heat_capacity:     462.1435794
  energy:            120.9377259

- temperature:       250.0000000
  free_energy:       -99.9610490
  entropy:           902.1115155
  heat_capacity:     463.6490304
  energy:            125.5668299

- temperature:       260.0000000
  free_energy:      -109.0737723
  entropy:           920.3229014
  heat_capacity:     464.9970201
  energy:            130.2101821

- temperature:       270.0000000
  free_energy:      -118.3653771
  entropy:           937.8951563
  heat_capacity:     466.2083588
  energy:            134.8663151

- temperature:       280.0000000
  free_energy:      -127.8296849
  entropy:           954.8701337
  heat_capacity:     467.3005947
  energy:            139.5339526

- temperature:       290.0000000
  free_energy:      -137.4609159
  entropy:           971.2858474
  heat_capacity:     468.2885965
  energy:            144.2119798

- temperature:       300.0000000
  free_energy:      -147.2536533
  entropy:           987.1769092
  heat_capacity:     469.1850210
  energy:            148.8994194

- temperature:       310.0000000
  free_energy:      -157.2028109
  entropy:          1002.5749099
  heat_capacity:     470.0006892
  energy:            153.5954112

- temperature:       320.0000000
  free_energy:      -167.3036046
  entropy:          1017.5087492
  heat_capacity:     470.7448924
  energy:            158.2991952

- temperature:       330.0000000
  free_energy:      -177.5515272
  entropy:          1032.0049239
  heat_capacity:     471.4256405
  energy:            163.0100977

- temperature:       340.0000000
  free_energy:      -187.9423255
  entropy:          1046.0877800
  heat_capacity:     472.0498653
  energy:            167.7275197

- temperature:       350.0000000
  free_energy:      -198.4719800
  entropy:          1059.7797335
  heat_capacity:     472.6235886
  energy:            172.4509267

- temperature:       360.0000000
  free_energy:      -209.1366863
  entropy:          1073.1014638
  heat_capacity:     473.1520593
  energy:            177.1798407

- temperature:       370.0000000
  free_energy:      -219.9328391
  entropy:          1086.0720851
  heat_capacity:     473.6398688
  energy:            181.9138324

- temperature:       380.0000000
  free_energy:      -230.8570168
  entropy:          1098.7092968
  heat_capacity:     474.0910463
  energy:            186.6525160

- temperature:       390.0000000
  free_energy:      -241.9059685
  entropy:          1111.0295169
  heat_capacity:     474.5091382
  energy:            191.3955431

- temperature:       400.0000000
  free_energy:      -253.0766015
  entropy:          1123.0480010
  heat_capacity:     474.8972758
  energy:            196.1425989

- temperature:       410.0000000
  free_energy:      -264.3659702
  entropy:          1134.7789469
  heat_capacity:     475.2582315
  energy:            200.8933981

- temperature:       420.0000000
  free_energy:      -275.7712661
  entropy:          1146.2355889
  heat_capacity:     475.5944667
  energy:            205.6476812

- temperature:       430.0000000
  free_energy:      -287.2898089
  entropy:          1157.4302818
  heat_capacity:     475.9081724
  energy:            210.4052123

- temperature:       440.0000000
  free_energy:      -298.9190372
  entropy:          1168.3745757
  heat_capacity:     476.2013038
  energy:            215.1657761

- temperature:       450.0000000
  free_energy:      -310.6565018
  entropy:          1179.0792833
  heat_capacity:     476.4756099
  energy:            219.9291757

- temperature:       460.0000000
  free_energy:      -322.4998581
  entropy:          1189.5545411
  heat_capacity:     476.7326590
  energy:            224.6952308

- temperature:       470.0000000
  free_energy:      -334.4468596
  entropy:          1199.8098630
  heat_capacity:     476.9738603
  energy:            229.4637760

- temperature:       480.0000000
  free_energy:      -346.4953521
  entropy:          1209.8541907
  heat_capacity:     477.2004831
  energy:            234.2346594

- temperature:       490.0000000
  free_energy:      -358.6432682
  entropy:          1219.6959370
  heat_capacity:     477.4136725
  energy:            239.0077409

- temperature:       500.0000000
  free_energy:      -370.8886220
  entropy:          1229.3430272
  heat_capacity:     477.6144642
  energy:            243.7828915

- temperature:       510.0000000
  free_energy:      -383.2295048
  entropy:          1238.8029350
  heat_capacity:     477.8037963
  energy:            248.5599920

- temperature:       520.0000000
  free_energy:      -395.6640804
  entropy:          1248.0827163
  heat_capacity:     477.9825204
  energy:            253.3389321

- temperature:       530.0000000
  free_energy:      -408.1905810
  entropy:          1257.1890390
  heat_capacity:     478.1514108
  energy:            258.1196097

- temperature:       540.0000000
  free_energy:      -420.8073040
  entropy:          1266.1282110
  heat_capacity:     478.3111727
  energy:            262.9019299

- temperature:       550.0000000
  free_energy:      -433.5126080
  entropy:          1274.9062052
  heat_capacity:     478.4624495
  energy:            267.6858048

- temperature:       560.0000000
  free_energy:      -446.3049098
  entropy:          1283.5286828
  heat_capacity:     478.6058291
  energy:            272.4711526

- temperature:       570.0000000
  free_energy:      -459.1826812
  entropy:          1292.0010142
  heat_capacity:     478.7418495
  energy:            277.2578969

- temperature:       580.0000000
  free_energy:      -472.1444466
  entropy:          1300.3282987
  heat_capacity:     478.8710040
  energy:            282.0459667

- temperature:       590.0000000
  free_energy:      -485.1887799
  entropy:          1308.5153821
  heat_capacity:     478.9937453
  energy:            286.8352956

- temperature:       600.0000000
  free_energy:      -498.3143023
  entropy:          1316.5668731
  heat_capacity:     479.1104895
  energy:            291.6258216

- temperature:       610.0000000
  free_energy:      -511.5196800
  entropy:          1324.4871585
  heat_capacity:     479.2216198
  energy:            296.4174867

- temperature:       620.0000000
  free_energy:      -524.8036220
  entropy:          1332.2804170
  heat_capacity:     479.3274891
  energy:            301.2102365

- temperature:       630.0000000
  free_energy:      -538.1648782
  entropy:          1339.9506321
  heat_capacity:     479.4284233
  energy:            306.0040200

- temperature:       640.0000000
  free_energy:      -551.6022372
  entropy:          1347.5016043
  heat_capacity:     479.5247235
  energy:            310.7987895

- temperature:       650.0000000
  free_energy:      -565.1145249
  entropy:          1354.9369614
  heat_capacity:     479.6166681
  energy:            315.5945000

- temperature:       660.0000000
  free_energy:      -578.7006026
  entropy:          1362.2601695
  heat_capacity:     479.7045152
  energy:            320.3911092

- temperature:       670.0000000
  free_energy:      -592.3593656
  entropy:          1369.4745417
  heat_capacity:     479.7885039
  energy:            325.1885774

- temperature:       680.0000000
  free_energy:      -606.0897413
  entropy:          1376.5832477
  heat_capacity:     479.8688564
  energy:            329.9868672

- temperature:       690.0000000
  free_energy:      -619.8906884
  entropy:          1383.5893210
  heat_capacity:     479.9457789
  energy:            334.7859431

- temperature:       700.0000000
  free_energy:      -633.7611953
  entropy:          1390.4956675
  heat_capacity:     480.0194635
  energy:            339.5857719

- temperature:       710.0000000
  free_energy:      -647.7002786
  entropy:          1397.3050716
  heat_capacity:     480.0900888
  energy:            344.3863222

- temperature:       720.0000000
  free_energy:      -661.7069825
  entropy:          1404.0202036
  heat_capacity:     480.1578215
  energy:            349.1875641

- temperature:       730.0000000
  free_energy:      -675.7803770
  entropy:          1410.6436254
  heat_capacity:     480.2228171
  energy:            353.9894695

- temperature:       740.0000000
  free_energy:      -689.9195575
  entropy:          1417.1777963
  heat_capacity:     480.2852206
  energy:            358.7920118

- temperature:       750.0000000
  free_energy:      -704.1236433
  entropy:          1423.6250787
  heat_capacity:     480.3451679
  energy:            363.5951657

- temperature:       760.0000000
  free_energy:      -718.3917770
  entropy:          1429.9877426
  heat_capacity:     480.4027858
  energy:            368.3989074

- temperature:       770.0000000
  free_energy:      -732.7231234
  entropy:          1436.2679707
  heat_capacity:     480.4581933
  energy:            373.2032141

- temperature:       780.0000000
  free_energy:      -747.1168687
  entropy:          1442.4678627
  heat_capacity:     480.5115017
  energy:            378.0080642

- temperature:       790.0000000
  free_energy:      -761.5722196
  entropy:          1448.5894393
  heat_capacity:     480.5628155
  energy:            382.8134375

- temperature:       800.0000000
  free_energy:      -776.0884029
  entropy:          1454.6346464
  heat_capacity:     480.6122328
  energy:            387.6193142

- temperature:       810.0000000
  free_energy:      -790.6646642
  entropy:          1460.6053584
  heat_capacity:     480.6598457
  energy:            392.4256761

- temperature:       820.0000000
  free_energy:      -805.3002678
  entropy:          1466.5033819
  heat_capacity:     480.7057408
  energy:            397.2325054

- temperature:       830.0000000
  free_energy:      -819.9944954
  entropy:          1472.3304588
  heat_capacity:     480.7499997
  energy:            402.0397855

- temperature:       840.0000000
  free_energy:      -834.7466461
  entropy:          1478.0882694
  heat_capacity:     480.7926991
  energy:            406.8475002

- temperature:       850.0000000
  free_energy:      -849.5560353
  entropy:          1483.7784350
  heat_capacity:     480.8339112
  energy:            411.6556345

- temperature:       860.0000000
  free_energy:      -864.4219945
  entropy:          1489.4025212
  heat_capacity:     480.8737042
  energy:            416.4641737

- temperature:       870.0000000
  free_energy:      -879.3438705
  entropy:          1494.9620397
  heat_capacity:     480.9121425
  energy:            421.2731041

- temperature:       880.0000000
  free_energy:      -894.3210250
  entropy:          1500.4584514
  heat_capacity:     480.9492866
  energy:            426.0824122

- temperature:       890.0000000
  free_energy:      -909.3528339
  entropy:          1505.8931680
  heat_capacity:     480.9851940
  energy:            430.8920857

- temperature:       900.0000000
  free_energy:      -924.4386872
  entropy:          1511.2675549
  heat_capacity:     481.0199189
  energy:            435.7021122

- temperature:       910.0000000
  free_energy:      -939.5779883
  entropy:          1516.5829325
  heat_capacity:     481.0535126
  energy:            440.5124803

- temperature:       920.0000000
  free_energy:      -954.7701534
  entropy:          1521.8405785
  heat_capacity:     481.0860235
  energy:            445.3231788

- temperature:       930.0000000
  free_energy:      -970.0146116
  entropy:          1527.0417299
  heat_capacity:     481.1174977
  energy:            450.1341973

- temperature:       940.0000000
  free_energy:      -985.3108037
  entropy:          1532.1875842
  heat_capacity:     481.1479787
  energy:            454.9455255

- temperature:       950.0000000
  free_energy:     -1000.6581828
  entropy:          1537.2793015
  heat_capacity:     481.1775077
  energy:            459.7571537

- temperature:       960.0000000
  free_energy:     -1016.0562130
  entropy:          1542.3180059
  heat_capacity:     481.2061241
  energy:            464.5690726

- temperature:       970.0000000
  free_energy:     -1031.5043698
  entropy:          1547.3047867
  heat_capacity:     481.2338649
  energy:            469.3812732

- temperature:       980.0000000
  free_energy:     -1047.0021392
  entropy:          1552.2407003
  heat_capacity:     481.2607655
  energy:            474.1937471

- temperature:       990.0000000
  free_energy:     -1062.5490177
  entropy:          1557.1267713
  heat_capacity:     481.2868593
  energy:            479.0064859

- temperature:      1000.0000000
  free_energy:     -1078.1445118
  entropy:          1561.9639935
  heat_capacity:     481.3121784
  energy:            483.8194817
