# Thermal properties / unit cell (natom)

unit:
  temperature:   K
  free_energy:   kJ/mol
  entropy:       J/K/mol
  heat_capacity: J/K/mol

natom: 30   
cutoff_frequency:    0.000
num_modes: 46080
num_integrated_modes: 46080

zero_point_energy:     306.8745761
high_T_entropy:       2190.5568394

thermal_properties:
- temperature:         0.0000000
  free_energy:       306.8745761
  entropy:             0.0000000
  heat_capacity:       0.0000000
  energy:            306.8745761

- temperature:        10.0000000
  free_energy:       306.8744639
  entropy:             0.0557197
  heat_capacity:       0.2122130
  energy:            306.8750211

- temperature:        20.0000000
  free_energy:       306.8716661
  entropy:             0.6490057
  heat_capacity:       2.1733879
  energy:            306.8846462

- temperature:        30.0000000
  free_energy:       306.8573872
  entropy:             2.4722333
  heat_capacity:       8.0299784
  energy:            306.9315542

- temperature:        40.0000000
  free_energy:       306.8158452
  entropy:             6.2002579
  heat_capacity:      19.4257651
  energy:            307.0638555

- temperature:        50.0000000
  free_energy:       306.7254792
  entropy:            12.2888284
  heat_capacity:      36.7330536
  energy:            307.3399207

- temperature:        60.0000000
  free_energy:       306.5616421
  entropy:            20.8958970
  heat_capacity:      59.0779529
  energy:            307.8153959

- temperature:        70.0000000
  free_energy:       306.2995370
  entropy:            31.9039733
  heat_capacity:      84.8205342
  energy:            308.5328151

- temperature:        80.0000000
  free_energy:       305.9165663
  entropy:            45.0082176
  heat_capacity:     112.1998887
  energy:            309.5172237

- temperature:        90.0000000
  free_energy:       305.3936843
  entropy:            59.8188950
  heat_capacity:     139.7668233
  energy:            310.7773849

- temperature:       100.0000000
  free_energy:       304.7158247
  entropy:            75.9400969
  heat_capacity:     166.5303314
  energy:            312.3098344

- temperature:       110.0000000
  free_energy:       303.8717094
  entropy:            93.0151982
  heat_capacity:     191.9212337
  energy:            314.1033812

- temperature:       120.0000000
  free_energy:       302.8533433
  entropy:           110.7455922
  heat_capacity:     215.6854190
  energy:            316.1428143

- temperature:       130.0000000
  free_energy:       301.6554139
  entropy:           128.8928909
  heat_capacity:     237.7734532
  energy:            318.4114897

- temperature:       140.0000000
  free_energy:       300.2747149
  entropy:           147.2728690
  heat_capacity:     258.2532512
  energy:            320.8929165

- temperature:       150.0000000
  free_energy:       298.7096486
  entropy:           165.7464086
  heat_capacity:     277.2502189
  energy:            323.5716099

- temperature:       160.0000000
  free_energy:       296.9598220
  entropy:           184.2102662
  heat_capacity:     294.9102536
  energy:            326.4334646

- temperature:       170.0000000
  free_energy:       295.0257296
  entropy:           202.5889150
  heat_capacity:     311.3789709
  energy:            329.4658452

- temperature:       180.0000000
  free_energy:       292.9085112
  entropy:           220.8278525
  heat_capacity:     326.7913524
  energy:            332.6575246

- temperature:       190.0000000
  free_energy:       290.6097687
  entropy:           238.8883407
  heat_capacity:     341.2675712
  energy:            335.9985534

- temperature:       200.0000000
  free_energy:       288.1314301
  entropy:           256.7433779
  heat_capacity:     354.9122049
  energy:            339.4801057

- temperature:       210.0000000
  free_energy:       285.4756477
  entropy:           274.3746616
  heat_capacity:     367.8151284
  energy:            343.0943266

- temperature:       220.0000000
  free_energy:       282.6447228
  entropy:           291.7703192
  heat_capacity:     380.0531088
  energy:            346.8341931

- temperature:       230.0000000
  free_energy:       279.6410509
  entropy:           308.9232201
  heat_capacity:     391.6915804
  energy:            350.6933915

- temperature:       240.0000000
  free_energy:       276.4670801
  entropy:           325.8297215
  heat_capacity:     402.7863457
  energy:            354.6662132

- temperature:       250.0000000
  free_energy:       273.1252816
  entropy:           342.4887367
  heat_capacity:     413.3850956
  energy:            358.7474658

- temperature:       260.0000000
  free_energy:       269.6181278
  entropy:           358.9010417
  heat_capacity:     423.5287195
  energy:            362.9323987

- temperature:       270.0000000
  free_energy:       265.9480762
  entropy:           375.0687584
  heat_capacity:     433.2524131
  energy:            367.2166409

- temperature:       280.0000000
  free_energy:       262.1175578
  entropy:           390.9949689
  heat_capacity:     442.5866067
  energy:            371.5961490

- temperature:       290.0000000
  free_energy:       258.1289694
  entropy:           406.6834272
  heat_capacity:     451.5577392
  energy:            376.0671632

- temperature:       300.0000000
  free_energy:       253.9846677
  entropy:           422.1383440
  heat_capacity:     460.1889038
  energy:            380.6261709

- temperature:       310.0000000
  free_energy:       249.6869659
  entropy:           437.3642259
  heat_capacity:     468.5003856
  energy:            385.2698760

- temperature:       320.0000000
  free_energy:       245.2381311
  entropy:           452.3657561
  heat_capacity:     476.5101116
  energy:            389.9951730

- temperature:       330.0000000
  free_energy:       240.6403828
  entropy:           467.1477058
  heat_capacity:     484.2340261
  energy:            394.7991257

- temperature:       340.0000000
  free_energy:       235.8958929
  entropy:           481.7148696
  heat_capacity:     491.6864049
  energy:            399.6789486

- temperature:       350.0000000
  free_energy:       231.0067854
  entropy:           496.0720179
  heat_capacity:     498.8801176
  energy:            404.6319917

- temperature:       360.0000000
  free_energy:       225.9751369
  entropy:           510.2238635
  heat_capacity:     505.8268472
  energy:            409.6557277

- temperature:       370.0000000
  free_energy:       220.8029770
  entropy:           524.1750379
  heat_capacity:     512.5372734
  energy:            414.7477410

- temperature:       380.0000000
  free_energy:       215.4922899
  entropy:           537.9300750
  heat_capacity:     519.0212244
  energy:            419.9057184

- temperature:       390.0000000
  free_energy:       210.0450146
  entropy:           551.4934012
  heat_capacity:     525.2878043
  energy:            425.1274410

- temperature:       400.0000000
  free_energy:       204.4630465
  entropy:           564.8693293
  heat_capacity:     531.3454979
  energy:            430.4107782

- temperature:       410.0000000
  free_energy:       198.7482386
  entropy:           578.0620552
  heat_capacity:     537.2022574
  energy:            435.7536813

- temperature:       420.0000000
  free_energy:       192.9024025
  entropy:           591.0756575
  heat_capacity:     542.8655748
  energy:            441.1541786

- temperature:       430.0000000
  free_energy:       186.9273093
  entropy:           603.9140983
  heat_capacity:     548.3425400
  energy:            446.6103716

- temperature:       440.0000000
  free_energy:       180.8246915
  entropy:           616.5812254
  heat_capacity:     553.6398900
  energy:            452.1204307

- temperature:       450.0000000
  free_energy:       174.5962434
  entropy:           629.0807750
  heat_capacity:     558.7640484
  energy:            457.6825921

- temperature:       460.0000000
  free_energy:       168.2436225
  entropy:           641.4163747
  heat_capacity:     563.7211580
  energy:            463.2951549

- temperature:       470.0000000
  free_energy:       161.7684507
  entropy:           653.5915478
  heat_capacity:     568.5171074
  energy:            468.9564781

- temperature:       480.0000000
  free_energy:       155.1723149
  entropy:           665.6097163
  heat_capacity:     573.1575531
  energy:            474.6649787

- temperature:       490.0000000
  free_energy:       148.4567686
  entropy:           677.4742049
  heat_capacity:     577.6479370
  energy:            480.4191290

- temperature:       500.0000000
  free_energy:       141.6233323
  entropy:           689.1882449
  heat_capacity:     581.9935016
  energy:            486.2174548

- temperature:       510.0000000
  free_energy:       134.6734947
  entropy:           700.7549774
  heat_capacity:     586.1993020
  energy:            492.0585332

- temperature:       520.0000000
  free_energy:       127.6087136
  entropy:           712.1774569
  heat_capacity:     590.2702162
  energy:            497.9409912

- temperature:       530.0000000
  free_energy:       120.4304165
  entropy:           723.4586549
  heat_capacity:     594.2109538
  energy:            503.8635036

- temperature:       540.0000000
  free_energy:       113.1400018
  entropy:           734.6014625
  heat_capacity:     598.0260632
  energy:            509.8247915

- temperature:       550.0000000
  free_energy:       105.7388392
  entropy:           745.6086938
  heat_capacity:     601.7199380
  energy:            515.8236208

- temperature:       560.0000000
  free_energy:        98.2282707
  entropy:           756.4830887
  heat_capacity:     605.2968229
  energy:            521.8588003

- temperature:       570.0000000
  free_energy:        90.6096113
  entropy:           767.2273152
  heat_capacity:     608.7608181
  energy:            527.9291809

- temperature:       580.0000000
  free_energy:        82.8841496
  entropy:           777.8439724
  heat_capacity:     612.1158845
  energy:            534.0336536

- temperature:       590.0000000
  free_energy:        75.0531486
  entropy:           788.3355927
  heat_capacity:     615.3658476
  energy:            540.1711483

- temperature:       600.0000000
  free_energy:        67.1178463
  entropy:           798.7046437
  heat_capacity:     618.5144014
  energy:            546.3406326

- temperature:       610.0000000
  free_energy:        59.0794563
  entropy:           808.9535310
  heat_capacity:     621.5651125
  energy:            552.5411102

- temperature:       620.0000000
  free_energy:        50.9391684
  entropy:           819.0845996
  heat_capacity:     624.5214234
  energy:            558.7716201

- temperature:       630.0000000
  free_energy:        42.6981494
  entropy:           829.1001360
  heat_capacity:     627.3866561
  energy:            565.0312351

- temperature:       640.0000000
  free_energy:        34.3575434
  entropy:           839.0023703
  heat_capacity:     630.1640159
  energy:            571.3190604

- temperature:       650.0000000
  free_energy:        25.9184724
  entropy:           848.7934776
  heat_capacity:     632.8565943
  energy:            577.6342328

- temperature:       660.0000000
  free_energy:        17.3820371
  entropy:           858.4755795
  heat_capacity:     635.4673724
  energy:            583.9759196

- temperature:       670.0000000
  free_energy:         8.7493173
  entropy:           868.0507462
  heat_capacity:     637.9992245
  energy:            590.3433172

- temperature:       680.0000000
  free_energy:         0.0213719
  entropy:           877.5209975
  heat_capacity:     640.4549211
  energy:            596.7356503

- temperature:       690.0000000
  free_energy:        -8.8007596
  entropy:           886.8883047
  heat_capacity:     642.8371323
  energy:            603.1521707

- temperature:       700.0000000
  free_energy:       -17.7160574
  entropy:           896.1545914
  heat_capacity:     645.1484305
  energy:            609.5921565

- temperature:       710.0000000
  free_energy:       -26.7235209
  entropy:           905.3217353
  heat_capacity:     647.3912941
  energy:            616.0549112

- temperature:       720.0000000
  free_energy:       -35.8221678
  entropy:           914.3915695
  heat_capacity:     649.5681102
  energy:            622.5397623

- temperature:       730.0000000
  free_energy:       -45.0110339
  entropy:           923.3658833
  heat_capacity:     651.6811779
  energy:            629.0460609

- temperature:       740.0000000
  free_energy:       -54.2891729
  entropy:           932.2464238
  heat_capacity:     653.7327108
  energy:            635.5731807

- temperature:       750.0000000
  free_energy:       -63.6556555
  entropy:           941.0348968
  heat_capacity:     655.7248405
  energy:            642.1205171

- temperature:       760.0000000
  free_energy:       -73.1095695
  entropy:           949.7329682
  heat_capacity:     657.6596191
  energy:            648.6874864

- temperature:       770.0000000
  free_energy:       -82.6500189
  entropy:           958.3422647
  heat_capacity:     659.5390221
  energy:            655.2735249

- temperature:       780.0000000
  free_energy:       -92.2761241
  entropy:           966.8643753
  heat_capacity:     661.3649510
  energy:            661.8780886

- temperature:       790.0000000
  free_energy:      -101.9870210
  entropy:           975.3008516
  heat_capacity:     663.1392364
  energy:            668.5006518

- temperature:       800.0000000
  free_energy:      -111.7818608
  entropy:           983.6532098
  heat_capacity:     664.8636398
  energy:            675.1407070

- temperature:       810.0000000
  free_energy:      -121.6598097
  entropy:           991.9229305
  heat_capacity:     666.5398570
  energy:            681.7977640

- temperature:       820.0000000
  free_energy:      -131.6200488
  entropy:          1000.1114607
  heat_capacity:     668.1695199
  energy:            688.4713490

- temperature:       830.0000000
  free_energy:      -141.6617730
  entropy:          1008.2202138
  heat_capacity:     669.7541994
  energy:            695.1610044

- temperature:       840.0000000
  free_energy:      -151.7841917
  entropy:          1016.2505712
  heat_capacity:     671.2954073
  energy:            701.8662881

- temperature:       850.0000000
  free_energy:      -161.9865276
  entropy:          1024.2038826
  heat_capacity:     672.7945986
  energy:            708.5867725

- temperature:       860.0000000
  free_energy:      -172.2680170
  entropy:          1032.0814670
  heat_capacity:     674.2531739
  energy:            715.3220447

- temperature:       870.0000000
  free_energy:      -182.6279089
  entropy:          1039.8846138
  heat_capacity:     675.6724814
  energy:            722.0717051

- temperature:       880.0000000
  free_energy:      -193.0654653
  entropy:          1047.6145830
  heat_capacity:     677.0538189
  energy:            728.8353677

- temperature:       890.0000000
  free_energy:      -203.5799607
  entropy:          1055.2726065
  heat_capacity:     678.3984355
  energy:            735.6126591

- temperature:       900.0000000
  free_energy:      -214.1706816
  entropy:          1062.8598886
  heat_capacity:     679.7075341
  energy:            742.4032181

- temperature:       910.0000000
  free_energy:      -224.8369266
  entropy:          1070.3776064
  heat_capacity:     680.9822725
  energy:            749.2066953

- temperature:       920.0000000
  free_energy:      -235.5780057
  entropy:          1077.8269113
  heat_capacity:     682.2237658
  energy:            756.0227527

- temperature:       930.0000000
  free_energy:      -246.3932405
  entropy:          1085.2089289
  heat_capacity:     683.4330876
  energy:            762.8510633

- temperature:       940.0000000
  free_energy:      -257.2819637
  entropy:          1092.5247599
  heat_capacity:     684.6112718
  energy:            769.6913107

- temperature:       950.0000000
  free_energy:      -268.2435187
  entropy:          1099.7754811
  heat_capacity:     685.7593145
  energy:            776.5431883

- temperature:       960.0000000
  free_energy:      -279.2772598
  entropy:          1106.9621453
  heat_capacity:     686.8781748
  energy:            783.4063997

- temperature:       970.0000000
  free_energy:      -290.3825515
  entropy:          1114.0857826
  heat_capacity:     687.9687769
  energy:            790.2806576

- temperature:       980.0000000
  free_energy:      -301.5587687
  entropy:          1121.1474007
  heat_capacity:     689.0320111
  energy:            797.1656840

- temperature:       990.0000000
  free_energy:      -312.8052961
  entropy:          1128.1479854
  heat_capacity:     690.0687353
  energy:            804.0612095

- temperature:      1000.0000000
  free_energy:      -324.1215282
  entropy:          1135.0885013
  heat_capacity:     691.0797763
  energy:            810.9669731
