# Thermal properties / unit cell (natom)

unit:
  temperature:   K
  free_energy:   kJ/mol
  entropy:       J/K/mol
  heat_capacity: J/K/mol

natom: 5    
cutoff_frequency:    0.000
num_modes: 7680
num_integrated_modes: 7680

zero_point_energy:      26.5950365
high_T_entropy:        430.8843041

thermal_properties:
- temperature:         0.0000000
  free_energy:        26.5950365
  entropy:             0.0000000
  heat_capacity:       0.0000000
  energy:             26.5950365

- temperature:        10.0000000
  free_energy:        26.5949931
  entropy:             0.0244568
  heat_capacity:       0.1010417
  energy:             26.5952377

- temperature:        20.0000000
  free_energy:        26.5935486
  entropy:             0.3635450
  heat_capacity:       1.3978860
  energy:             26.6008195

- temperature:        30.0000000
  free_energy:        26.5846409
  entropy:             1.6062511
  heat_capacity:       5.4451105
  energy:             26.6328284

- temperature:        40.0000000
  free_energy:        26.5577040
  entropy:             3.9489540
  heat_capacity:      11.2770144
  energy:             26.7156622

- temperature:        50.0000000
  free_energy:        26.5028571
  entropy:             7.1331164
  heat_capacity:      17.4847399
  energy:             26.8595129

- temperature:        60.0000000
  free_energy:        26.4132578
  entropy:            10.8560720
  heat_capacity:      23.4881740
  energy:             27.0646221

- temperature:        70.0000000
  free_energy:        26.2846428
  entropy:            14.9097954
  heat_capacity:      29.2112201
  energy:             27.3283285

- temperature:        80.0000000
  free_energy:        26.1143719
  entropy:            19.1722040
  heat_capacity:      34.7239325
  energy:             27.6481482

- temperature:        90.0000000
  free_energy:        25.9007403
  entropy:            23.5729807
  heat_capacity:      40.0853743
  energy:             28.0223085

- temperature:       100.0000000
  free_energy:        25.6425994
  entropy:            28.0680023
  heat_capacity:      45.3088388
  energy:             28.4493996

- temperature:       110.0000000
  free_energy:        25.3391732
  entropy:            32.6253144
  heat_capacity:      50.3735939
  energy:             28.9279578

- temperature:       120.0000000
  free_energy:        24.9899730
  entropy:            37.2187735
  heat_capacity:      55.2446808
  energy:             29.4562258

- temperature:       130.0000000
  free_energy:        24.5947532
  entropy:            41.8256640
  heat_capacity:      59.8875081
  energy:             30.0320896

- temperature:       140.0000000
  free_energy:        24.1534817
  entropy:            46.4260243
  heat_capacity:      64.2754538
  energy:             30.6531252

- temperature:       150.0000000
  free_energy:        23.6663125
  entropy:            51.0025429
  heat_capacity:      68.3923300
  energy:             31.3166940

- temperature:       160.0000000
  free_energy:        23.1335596
  entropy:            55.5405438
  heat_capacity:      72.2319263
  energy:             32.0200466

- temperature:       170.0000000
  free_energy:        22.5556707
  entropy:            60.0279031
  heat_capacity:      75.7962544
  energy:             32.7604142

- temperature:       180.0000000
  free_energy:        21.9332030
  entropy:            64.4548764
  heat_capacity:      79.0934565
  energy:             33.5350808

- temperature:       190.0000000
  free_energy:        21.2668000
  entropy:            68.8138617
  heat_capacity:      82.1358565
  energy:             34.3414338

- temperature:       200.0000000
  free_energy:        20.5571717
  entropy:            73.0991319
  heat_capacity:      84.9383475
  energy:             35.1769981

- temperature:       210.0000000
  free_energy:        19.8050770
  entropy:            77.3065620
  heat_capacity:      87.5171512
  energy:             36.0394550

- temperature:       220.0000000
  free_energy:        19.0113093
  entropy:            81.4333712
  heat_capacity:      89.8889137
  energy:             36.9266510

- temperature:       230.0000000
  free_energy:        18.1766840
  entropy:            85.4778872
  heat_capacity:      92.0700800
  energy:             37.8365981

- temperature:       240.0000000
  free_energy:        17.3020285
  entropy:            89.4393400
  heat_capacity:      94.0764824
  energy:             38.7674701

- temperature:       250.0000000
  free_energy:        16.3881743
  entropy:            93.3176835
  heat_capacity:      95.9230891
  energy:             39.7175952

- temperature:       260.0000000
  free_energy:        15.4359502
  entropy:            97.1134452
  heat_capacity:      97.6238669
  energy:             40.6854459

- temperature:       270.0000000
  free_energy:        14.4461774
  entropy:           100.8276004
  heat_capacity:      99.1917245
  energy:             41.6696296

- temperature:       280.0000000
  free_energy:        13.4196658
  entropy:           104.4614684
  heat_capacity:     100.6385089
  energy:             42.6688770

- temperature:       290.0000000
  free_energy:        12.3572105
  entropy:           108.0166271
  heat_capacity:     101.9750369
  energy:             43.6820323

- temperature:       300.0000000
  free_energy:        11.2595898
  entropy:           111.4948444
  heat_capacity:     103.2111478
  energy:             44.7080431

- temperature:       310.0000000
  free_energy:        10.1275637
  entropy:           114.8980216
  heat_capacity:     104.3557679
  energy:             45.7459504

- temperature:       320.0000000
  free_energy:         8.9618728
  entropy:           118.2281489
  heat_capacity:     105.4169804
  energy:             46.7948805

- temperature:       330.0000000
  free_energy:         7.7632374
  entropy:           121.4872697
  heat_capacity:     106.4020966
  energy:             47.8540364

- temperature:       340.0000000
  free_energy:         6.5323572
  entropy:           124.6774519
  heat_capacity:     107.3177250
  energy:             48.9226909

- temperature:       350.0000000
  free_energy:         5.2699113
  entropy:           127.8007657
  heat_capacity:     108.1698374
  energy:             50.0001793

- temperature:       360.0000000
  free_energy:         3.9765580
  entropy:           130.8592666
  heat_capacity:     108.9638305
  energy:             51.0858939

- temperature:       370.0000000
  free_energy:         2.6529352
  entropy:           133.8549817
  heat_capacity:     109.7045828
  energy:             52.1792785

- temperature:       380.0000000
  free_energy:         1.2996610
  entropy:           136.7898997
  heat_capacity:     110.3965067
  energy:             53.2798229

- temperature:       390.0000000
  free_energy:        -0.0826666
  entropy:           139.6659635
  heat_capacity:     111.0435956
  energy:             54.3870592

- temperature:       400.0000000
  free_energy:        -1.4934684
  entropy:           142.4850647
  heat_capacity:     111.6494670
  energy:             55.5005574

- temperature:       410.0000000
  free_energy:        -2.9321841
  entropy:           145.2490396
  heat_capacity:     112.2174001
  energy:             56.6199221

- temperature:       420.0000000
  free_energy:        -4.3982714
  entropy:           147.9596675
  heat_capacity:     112.7503710
  energy:             57.7447889

- temperature:       430.0000000
  free_energy:        -5.8912054
  entropy:           150.6186684
  heat_capacity:     113.2510834
  energy:             58.8748220

- temperature:       440.0000000
  free_energy:        -7.4104782
  entropy:           153.2277034
  heat_capacity:     113.7219958
  energy:             60.0097113

- temperature:       450.0000000
  free_energy:        -8.9555983
  entropy:           155.7883741
  heat_capacity:     114.1653469
  energy:             61.1491701

- temperature:       460.0000000
  free_energy:       -10.5260896
  entropy:           158.3022235
  heat_capacity:     114.5831769
  energy:             62.2929332

- temperature:       470.0000000
  free_energy:       -12.1214916
  entropy:           160.7707370
  heat_capacity:     114.9773477
  energy:             63.4407548

- temperature:       480.0000000
  free_energy:       -13.7413580
  entropy:           163.1953437
  heat_capacity:     115.3495602
  energy:             64.5924070

- temperature:       490.0000000
  free_energy:       -15.3852567
  entropy:           165.5774178
  heat_capacity:     115.7013704
  energy:             65.7476780

- temperature:       500.0000000
  free_energy:       -17.0527690
  entropy:           167.9182803
  heat_capacity:     116.0342028
  energy:             66.9063711

- temperature:       510.0000000
  free_energy:       -18.7434892
  entropy:           170.2192007
  heat_capacity:     116.3493637
  energy:             68.0683032

- temperature:       520.0000000
  free_energy:       -20.4570240
  entropy:           172.4813989
  heat_capacity:     116.6480517
  energy:             69.2333035

- temperature:       530.0000000
  free_energy:       -22.1929920
  entropy:           174.7060471
  heat_capacity:     116.9313686
  energy:             70.4012130

- temperature:       540.0000000
  free_energy:       -23.9510235
  entropy:           176.8942713
  heat_capacity:     117.2003275
  energy:             71.5718830

- temperature:       550.0000000
  free_energy:       -25.7307596
  entropy:           179.0471535
  heat_capacity:     117.4558617
  energy:             72.7451748

- temperature:       560.0000000
  free_energy:       -27.5318522
  entropy:           181.1657332
  heat_capacity:     117.6988316
  energy:             73.9209584

- temperature:       570.0000000
  free_energy:       -29.3539633
  entropy:           183.2510096
  heat_capacity:     117.9300313
  energy:             75.0991122

- temperature:       580.0000000
  free_energy:       -31.1967646
  entropy:           185.3039428
  heat_capacity:     118.1501943
  energy:             76.2795222

- temperature:       590.0000000
  free_energy:       -33.0599374
  entropy:           187.3254559
  heat_capacity:     118.3599992
  energy:             77.4620815

- temperature:       600.0000000
  free_energy:       -34.9431720
  entropy:           189.3164362
  heat_capacity:     118.5600742
  energy:             78.6466898

- temperature:       610.0000000
  free_energy:       -36.8461672
  entropy:           191.2777373
  heat_capacity:     118.7510015
  energy:             79.8332525

- temperature:       620.0000000
  free_energy:       -38.7686305
  entropy:           193.2101800
  heat_capacity:     118.9333211
  energy:             81.0216811

- temperature:       630.0000000
  free_energy:       -40.7102773
  entropy:           195.1145543
  heat_capacity:     119.1075346
  energy:             82.2118919

- temperature:       640.0000000
  free_energy:       -42.6708306
  entropy:           196.9916202
  heat_capacity:     119.2741081
  energy:             83.4038063

- temperature:       650.0000000
  free_energy:       -44.6500211
  entropy:           198.8421095
  heat_capacity:     119.4334751
  energy:             84.5973501

- temperature:       660.0000000
  free_energy:       -46.6475865
  entropy:           200.6667268
  heat_capacity:     119.5860395
  energy:             85.7924532

- temperature:       670.0000000
  free_energy:       -48.6632716
  entropy:           202.4661509
  heat_capacity:     119.7321775
  energy:             86.9890495

- temperature:       680.0000000
  free_energy:       -50.6968278
  entropy:           204.2410356
  heat_capacity:     119.8722402
  energy:             88.1870765

- temperature:       690.0000000
  free_energy:       -52.7480127
  entropy:           205.9920113
  heat_capacity:     120.0065554
  energy:             89.3864751

- temperature:       700.0000000
  free_energy:       -54.8165903
  entropy:           207.7196854
  heat_capacity:     120.1354292
  energy:             90.5871894

- temperature:       710.0000000
  free_energy:       -56.9023306
  entropy:           209.4246439
  heat_capacity:     120.2591480
  energy:             91.7891665

- temperature:       720.0000000
  free_energy:       -59.0050094
  entropy:           211.1074520
  heat_capacity:     120.3779798
  energy:             92.9923561

- temperature:       730.0000000
  free_energy:       -61.1244077
  entropy:           212.7686552
  heat_capacity:     120.4921757
  energy:             94.1967107

- temperature:       740.0000000
  free_energy:       -63.2603122
  entropy:           214.4087799
  heat_capacity:     120.6019709
  energy:             95.4021850

- temperature:       750.0000000
  free_energy:       -65.4125147
  entropy:           216.0283345
  heat_capacity:     120.7075863
  energy:             96.6087361

- temperature:       760.0000000
  free_energy:       -67.5808120
  entropy:           217.6278097
  heat_capacity:     120.8092291
  energy:             97.8163234

- temperature:       770.0000000
  free_energy:       -69.7650055
  entropy:           219.2076801
  heat_capacity:     120.9070938
  energy:             99.0249081

- temperature:       780.0000000
  free_energy:       -71.9649017
  entropy:           220.7684040
  heat_capacity:     121.0013637
  energy:            100.2344533

- temperature:       790.0000000
  free_energy:       -74.1803113
  entropy:           222.3104244
  heat_capacity:     121.0922109
  energy:            101.4449240

- temperature:       800.0000000
  free_energy:       -76.4110493
  entropy:           223.8341700
  heat_capacity:     121.1797974
  energy:            102.6562867

- temperature:       810.0000000
  free_energy:       -78.6569352
  entropy:           225.3400552
  heat_capacity:     121.2642761
  energy:            103.8685096

- temperature:       820.0000000
  free_energy:       -80.9177922
  entropy:           226.8284812
  heat_capacity:     121.3457909
  energy:            105.0815623

- temperature:       830.0000000
  free_energy:       -83.1934479
  entropy:           228.2998360
  heat_capacity:     121.4244776
  energy:            106.2954160

- temperature:       840.0000000
  free_energy:       -85.4837333
  entropy:           229.7544955
  heat_capacity:     121.5004645
  energy:            107.5100429

- temperature:       850.0000000
  free_energy:       -87.7884833
  entropy:           231.1928236
  heat_capacity:     121.5738724
  energy:            108.7254167

- temperature:       860.0000000
  free_energy:       -90.1075365
  entropy:           232.6151728
  heat_capacity:     121.6448160
  energy:            109.9415121

- temperature:       870.0000000
  free_energy:       -92.4407347
  entropy:           234.0218849
  heat_capacity:     121.7134034
  energy:            111.1583051

- temperature:       880.0000000
  free_energy:       -94.7879232
  entropy:           235.4132908
  heat_capacity:     121.7797370
  energy:            112.3757727

- temperature:       890.0000000
  free_energy:       -97.1489505
  entropy:           236.7897115
  heat_capacity:     121.8439136
  energy:            113.5938927

- temperature:       900.0000000
  free_energy:       -99.5236685
  entropy:           238.1514584
  heat_capacity:     121.9060251
  energy:            114.8126441

- temperature:       910.0000000
  free_energy:      -101.9119318
  entropy:           239.4988334
  heat_capacity:     121.9661585
  energy:            116.0320066

- temperature:       920.0000000
  free_energy:      -104.3135982
  entropy:           240.8321295
  heat_capacity:     122.0243964
  energy:            117.2519609

- temperature:       930.0000000
  free_energy:      -106.7285284
  entropy:           242.1516311
  heat_capacity:     122.0808169
  energy:            118.4724885

- temperature:       940.0000000
  free_energy:      -109.1565858
  entropy:           243.4576141
  heat_capacity:     122.1354944
  energy:            119.6935715

- temperature:       950.0000000
  free_energy:      -111.5976365
  entropy:           244.7503467
  heat_capacity:     122.1884995
  energy:            120.9151928

- temperature:       960.0000000
  free_energy:      -114.0515494
  entropy:           246.0300891
  heat_capacity:     122.2398993
  energy:            122.1373361

- temperature:       970.0000000
  free_energy:      -116.5181959
  entropy:           247.2970943
  heat_capacity:     122.2897575
  energy:            123.3599856

- temperature:       980.0000000
  free_energy:      -118.9974497
  entropy:           248.5516081
  heat_capacity:     122.3381347
  energy:            124.5831263

- temperature:       990.0000000
  free_energy:      -121.4891872
  entropy:           249.7938695
  heat_capacity:     122.3850887
  energy:            125.8067436

- temperature:      1000.0000000
  free_energy:      -123.9932870
  entropy:           251.0241105
  heat_capacity:     122.4306744
  energy:            127.0308235
