# Thermal properties / unit cell (natom)

unit:
  temperature:   K
  free_energy:   kJ/mol
  entropy:       J/K/mol
  heat_capacity: J/K/mol

natom: 15   
cutoff_frequency:    0.000
num_modes: 23040
num_integrated_modes: 23000

zero_point_energy:      71.0340875
high_T_entropy:       1494.7978872

thermal_properties:
- temperature:         0.0000000
  free_energy:        71.0340875
  entropy:             0.0000000
  heat_capacity:       0.0000000
  energy:             71.0340875

- temperature:        10.0000000
  free_energy:        71.0203450
  entropy:             4.8489444
  heat_capacity:      12.9722016
  energy:             71.0688344

- temperature:        20.0000000
  free_energy:        70.8756737
  entropy:            26.7373191
  heat_capacity:      57.5967893
  energy:             71.4104201

- temperature:        30.0000000
  free_energy:        70.4522921
  entropy:            58.7821971
  heat_capacity:     101.8909829
  energy:             72.2157580

- temperature:        40.0000000
  free_energy:        69.6936036
  entropy:            92.9152068
  heat_capacity:     135.1085370
  energy:             73.4102119

- temperature:        50.0000000
  free_energy:        68.5986452
  entropy:           125.7253121
  heat_capacity:     158.4663281
  energy:             74.8849108

- temperature:        60.0000000
  free_energy:        67.1870475
  entropy:           156.1794171
  heat_capacity:     175.2758921
  energy:             76.5578125

- temperature:        70.0000000
  free_energy:        65.4831827
  entropy:           184.2048478
  heat_capacity:     188.1774155
  energy:             78.3775221

- temperature:        80.0000000
  free_energy:        63.5102410
  entropy:           210.0444823
  heat_capacity:     198.7859770
  energy:             80.3137996

- temperature:        90.0000000
  free_energy:        61.2885701
  entropy:           233.9998631
  heat_capacity:     207.9758382
  energy:             82.3485578

- temperature:       100.0000000
  free_energy:        58.8356054
  entropy:           256.3451274
  heat_capacity:     216.1996338
  energy:             84.4701182

- temperature:       110.0000000
  free_energy:        56.1662707
  entropy:           277.3079816
  heat_capacity:     223.6998926
  energy:             86.6701487

- temperature:       120.0000000
  free_energy:        53.2934348
  entropy:           297.0729807
  heat_capacity:     230.6216805
  energy:             88.9421925

- temperature:       130.0000000
  free_energy:        50.2283018
  entropy:           315.7898944
  heat_capacity:     237.0644179
  energy:             91.2809881

- temperature:       140.0000000
  free_energy:        46.9807188
  entropy:           333.5815496
  heat_capacity:     243.1031015
  energy:             93.6821357

- temperature:       150.0000000
  free_energy:        43.5594133
  entropy:           350.5499133
  heat_capacity:     248.7964216
  energy:             96.1419003

- temperature:       160.0000000
  free_energy:        39.9721782
  entropy:           366.7805543
  heat_capacity:     254.1901839
  energy:             98.6570668

- temperature:       170.0000000
  free_energy:        36.2260186
  entropy:           382.3459096
  heat_capacity:     259.3194418
  energy:            101.2248233

- temperature:       180.0000000
  free_energy:        32.3272708
  entropy:           397.3077300
  heat_capacity:     264.2104188
  energy:            103.8426622

- temperature:       190.0000000
  free_energy:        28.2816985
  entropy:           411.7189668
  heat_capacity:     268.8823922
  energy:            106.5083022

- temperature:       200.0000000
  free_energy:        24.0945739
  entropy:           425.6252674
  heat_capacity:     273.3494484
  energy:            109.2196274

- temperature:       210.0000000
  free_energy:        19.7707439
  entropy:           439.0661868
  heat_capacity:     277.6220032
  energy:            111.9746431

- temperature:       220.0000000
  free_energy:        15.3146861
  entropy:           452.0761807
  heat_capacity:     281.7080315
  energy:            114.7714458

- temperature:       230.0000000
  free_energy:        10.7305557
  entropy:           464.6854259
  heat_capacity:     285.6140034
  energy:            117.6082036

- temperature:       240.0000000
  free_energy:         6.0222245
  entropy:           476.9205003
  heat_capacity:     289.3455566
  energy:            120.4831446

- temperature:       250.0000000
  free_energy:         1.1933142
  entropy:           488.8049470
  heat_capacity:     292.9079521
  energy:            123.3945509

- temperature:       260.0000000
  free_energy:        -3.7527759
  entropy:           500.3597416
  heat_capacity:     296.3063593
  energy:            126.3407570

- temperature:       270.0000000
  free_energy:        -8.8128447
  entropy:           511.6036801
  heat_capacity:     299.5460182
  energy:            129.3201489

- temperature:       280.0000000
  free_energy:       -13.9838699
  entropy:           522.5537000
  heat_capacity:     302.6323129
  energy:            132.3311661

- temperature:       290.0000000
  free_energy:       -19.2629903
  entropy:           533.2251473
  heat_capacity:     305.5707887
  energy:            135.3723024

- temperature:       300.0000000
  free_energy:       -24.6474910
  entropy:           543.6319969
  heat_capacity:     308.3671325
  energy:            138.4421081

- temperature:       310.0000000
  free_energy:       -30.1347910
  entropy:           553.7870373
  heat_capacity:     311.0271336
  energy:            141.5391906

- temperature:       320.0000000
  free_energy:       -35.7224317
  entropy:           563.7020232
  heat_capacity:     313.5566358
  energy:            144.6622158

- temperature:       330.0000000
  free_energy:       -41.4080675
  entropy:           573.3878040
  heat_capacity:     315.9614871
  energy:            147.8099078

- temperature:       340.0000000
  free_energy:       -47.1894573
  entropy:           582.8544314
  heat_capacity:     318.2474919
  energy:            150.9810494

- temperature:       350.0000000
  free_energy:       -53.0644568
  entropy:           592.1112497
  heat_capacity:     320.4203690
  energy:            154.1744806

- temperature:       360.0000000
  free_energy:       -59.0310120
  entropy:           601.1669732
  heat_capacity:     322.4857151
  energy:            157.3890983

- temperature:       370.0000000
  free_energy:       -65.0871532
  entropy:           610.0297509
  heat_capacity:     324.4489755
  energy:            160.6238546

- temperature:       380.0000000
  free_energy:       -71.2309894
  entropy:           618.7072225
  heat_capacity:     326.3154207
  energy:            163.8777551

- temperature:       390.0000000
  free_energy:       -77.4607039
  entropy:           627.2065672
  heat_capacity:     328.0901291
  energy:            167.1498573

- temperature:       400.0000000
  free_energy:       -83.7745496
  entropy:           635.5345445
  heat_capacity:     329.7779754
  energy:            170.4392682

- temperature:       410.0000000
  free_energy:       -90.1708449
  entropy:           643.6975310
  heat_capacity:     331.3836224
  energy:            173.7451428

- temperature:       420.0000000
  free_energy:       -96.6479704
  entropy:           651.7015520
  heat_capacity:     332.9115181
  energy:            177.0666815

- temperature:       430.0000000
  free_energy:      -103.2043651
  entropy:           659.5523098
  heat_capacity:     334.3658944
  energy:            180.4031281

- temperature:       440.0000000
  free_energy:      -109.8385237
  entropy:           667.2552079
  heat_capacity:     335.7507697
  energy:            183.7537677

- temperature:       450.0000000
  free_energy:      -116.5489935
  entropy:           674.8153735
  heat_capacity:     337.0699521
  energy:            187.1179246

- temperature:       460.0000000
  free_energy:      -123.3343717
  entropy:           682.2376772
  heat_capacity:     338.3270455
  energy:            190.4949598

- temperature:       470.0000000
  free_energy:      -130.1933030
  entropy:           689.5267508
  heat_capacity:     339.5254561
  energy:            193.8842699

- temperature:       480.0000000
  free_energy:      -137.1244773
  entropy:           696.6870029
  heat_capacity:     340.6683995
  energy:            197.2852841

- temperature:       490.0000000
  free_energy:      -144.1266277
  entropy:           703.7226342
  heat_capacity:     341.7589088
  energy:            200.6974631

- temperature:       500.0000000
  free_energy:      -151.1985280
  entropy:           710.6376500
  heat_capacity:     342.7998432
  energy:            204.1202970

- temperature:       510.0000000
  free_energy:      -158.3389914
  entropy:           717.4358727
  heat_capacity:     343.7938960
  energy:            207.5533037

- temperature:       520.0000000
  free_energy:      -165.5468683
  entropy:           724.1209528
  heat_capacity:     344.7436034
  energy:            210.9960272

- temperature:       530.0000000
  free_energy:      -172.8210449
  entropy:           730.6963790
  heat_capacity:     345.6513529
  energy:            214.4480359

- temperature:       540.0000000
  free_energy:      -180.1604415
  entropy:           737.1654877
  heat_capacity:     346.5193910
  energy:            217.9089219

- temperature:       550.0000000
  free_energy:      -187.5640109
  entropy:           743.5314716
  heat_capacity:     347.3498319
  energy:            221.3782985

- temperature:       560.0000000
  free_energy:      -195.0307374
  entropy:           749.7973879
  heat_capacity:     348.1446646
  energy:            224.8557998

- temperature:       570.0000000
  free_energy:      -202.5596349
  entropy:           755.9661653
  heat_capacity:     348.9057605
  energy:            228.3410793

- temperature:       580.0000000
  free_energy:      -210.1497463
  entropy:           762.0406116
  heat_capacity:     349.6348805
  energy:            231.8338084

- temperature:       590.0000000
  free_energy:      -217.8001417
  entropy:           768.0234196
  heat_capacity:     350.3336817
  energy:            235.3336759

- temperature:       600.0000000
  free_energy:      -225.5099178
  entropy:           773.9171734
  heat_capacity:     351.0037234
  energy:            238.8403862

- temperature:       610.0000000
  free_energy:      -233.2781966
  entropy:           779.7243540
  heat_capacity:     351.6464738
  energy:            242.3536594

- temperature:       620.0000000
  free_energy:      -241.1041243
  entropy:           785.4473446
  heat_capacity:     352.2633148
  energy:            245.8732293

- temperature:       630.0000000
  free_energy:      -248.9868705
  entropy:           791.0884352
  heat_capacity:     352.8555483
  energy:            249.3988436

- temperature:       640.0000000
  free_energy:      -256.9256273
  entropy:           796.6498277
  heat_capacity:     353.4244004
  energy:            252.9302624

- temperature:       650.0000000
  free_energy:      -264.9196085
  entropy:           802.1336401
  heat_capacity:     353.9710266
  energy:            256.4672576

- temperature:       660.0000000
  free_energy:      -272.9680483
  entropy:           807.5419103
  heat_capacity:     354.4965161
  energy:            260.0096125

- temperature:       670.0000000
  free_energy:      -281.0702014
  entropy:           812.8766004
  heat_capacity:     355.0018959
  energy:            263.5571209

- temperature:       680.0000000
  free_energy:      -289.2253414
  entropy:           818.1396000
  heat_capacity:     355.4881348
  energy:            267.1095866

- temperature:       690.0000000
  free_energy:      -297.4327605
  entropy:           823.3327295
  heat_capacity:     355.9561469
  energy:            270.6668228

- temperature:       700.0000000
  free_energy:      -305.6917689
  entropy:           828.4577437
  heat_capacity:     356.4067951
  energy:            274.2286516

- temperature:       710.0000000
  free_energy:      -314.0016940
  entropy:           833.5163346
  heat_capacity:     356.8408945
  energy:            277.7949036

- temperature:       720.0000000
  free_energy:      -322.3618797
  entropy:           838.5101342
  heat_capacity:     357.2592147
  energy:            281.3654169

- temperature:       730.0000000
  free_energy:      -330.7716860
  entropy:           843.4407173
  heat_capacity:     357.6624835
  energy:            284.9400377

- temperature:       740.0000000
  free_energy:      -339.2304884
  entropy:           848.3096042
  heat_capacity:     358.0513887
  energy:            288.5186187

- temperature:       750.0000000
  free_energy:      -347.7376773
  entropy:           853.1182627
  heat_capacity:     358.4265809
  energy:            292.1010198

- temperature:       760.0000000
  free_energy:      -356.2926576
  entropy:           857.8681109
  heat_capacity:     358.7886759
  energy:            295.6871067

- temperature:       770.0000000
  free_energy:      -364.8948480
  entropy:           862.5605190
  heat_capacity:     359.1382566
  energy:            299.2767516

- temperature:       780.0000000
  free_energy:      -373.5436809
  entropy:           867.1968114
  heat_capacity:     359.4758748
  energy:            302.8698320

- temperature:       790.0000000
  free_energy:      -382.2386015
  entropy:           871.7782689
  heat_capacity:     359.8020537
  energy:            306.4662309

- temperature:       800.0000000
  free_energy:      -390.9790676
  entropy:           876.3061303
  heat_capacity:     360.1172888
  energy:            310.0658366

- temperature:       810.0000000
  free_energy:      -399.7645494
  entropy:           880.7815941
  heat_capacity:     360.4220502
  energy:            313.6685418

- temperature:       820.0000000
  free_energy:      -408.5945287
  entropy:           885.2058206
  heat_capacity:     360.7167839
  energy:            317.2742441

- temperature:       830.0000000
  free_energy:      -417.4684988
  entropy:           889.5799328
  heat_capacity:     361.0019129
  energy:            320.8828455

- temperature:       840.0000000
  free_energy:      -426.3859640
  entropy:           893.9050187
  heat_capacity:     361.2778390
  energy:            324.4942517

- temperature:       850.0000000
  free_energy:      -435.3464393
  entropy:           898.1821319
  heat_capacity:     361.5449438
  energy:            328.1083728

- temperature:       860.0000000
  free_energy:      -444.3494501
  entropy:           902.4122936
  heat_capacity:     361.8035899
  energy:            331.7251224

- temperature:       870.0000000
  free_energy:      -453.3945319
  entropy:           906.5964937
  heat_capacity:     362.0541219
  energy:            335.3444176

- temperature:       880.0000000
  free_energy:      -462.4812300
  entropy:           910.7356919
  heat_capacity:     362.2968675
  energy:            338.9661789

- temperature:       890.0000000
  free_energy:      -471.6090989
  entropy:           914.8308190
  heat_capacity:     362.5321387
  energy:            342.5903300

- temperature:       900.0000000
  free_energy:      -480.7777025
  entropy:           918.8827780
  heat_capacity:     362.7602321
  energy:            346.2167977

- temperature:       910.0000000
  free_energy:      -489.9866135
  entropy:           922.8924452
  heat_capacity:     362.9814304
  energy:            349.8455117

- temperature:       920.0000000
  free_energy:      -499.2354132
  entropy:           926.8606712
  heat_capacity:     363.1960025
  energy:            353.4764043

- temperature:       930.0000000
  free_energy:      -508.5236915
  entropy:           930.7882817
  heat_capacity:     363.4042050
  energy:            357.1094105

- temperature:       940.0000000
  free_energy:      -517.8510462
  entropy:           934.6760788
  heat_capacity:     363.6062823
  energy:            360.7444679

- temperature:       950.0000000
  free_energy:      -527.2170830
  entropy:           938.5248416
  heat_capacity:     363.8024674
  energy:            364.3815165

- temperature:       960.0000000
  free_energy:      -536.6214154
  entropy:           942.3353269
  heat_capacity:     363.9929827
  energy:            368.0204984

- temperature:       970.0000000
  free_energy:      -546.0636644
  entropy:           946.1082705
  heat_capacity:     364.1780403
  energy:            371.6613580

- temperature:       980.0000000
  free_energy:      -555.5434581
  entropy:           949.8443875
  heat_capacity:     364.3578429
  energy:            375.3040417

- temperature:       990.0000000
  free_energy:      -565.0604317
  entropy:           953.5443734
  heat_capacity:     364.5325838
  energy:            378.9484980

- temperature:      1000.0000000
  free_energy:      -574.6142274
  entropy:           957.2089045
  heat_capacity:     364.7024478
  energy:            382.5946771
