# Thermal properties / unit cell (natom)

unit:
  temperature:   K
  free_energy:   kJ/mol
  entropy:       J/K/mol
  heat_capacity: J/K/mol

natom: 5    
cutoff_frequency:    0.000
num_modes: 7680
num_integrated_modes: 7680

zero_point_energy:      17.3132009
high_T_entropy:        491.2980197

thermal_properties:
- temperature:         0.0000000
  free_energy:        17.3132009
  entropy:             0.0000000
  heat_capacity:       0.0000000
  energy:             17.3132009

- temperature:        10.0000000
  free_energy:        17.3130716
  entropy:             0.0679304
  heat_capacity:       0.2718653
  energy:             17.3137509

- temperature:        20.0000000
  free_energy:        17.3087653
  entropy:             1.1140627
  heat_capacity:       4.3406774
  energy:             17.3310466

- temperature:        30.0000000
  free_energy:        17.2820537
  entropy:             4.6930679
  heat_capacity:      14.7926943
  energy:             17.4228457

- temperature:        40.0000000
  free_energy:        17.2067621
  entropy:            10.6935875
  heat_capacity:      27.6049945
  energy:             17.6345056

- temperature:        50.0000000
  free_energy:        17.0632387
  entropy:            18.1848635
  heat_capacity:      39.7457581
  energy:             17.9724819

- temperature:        60.0000000
  free_energy:        16.8407531
  entropy:            26.3798067
  heat_capacity:      50.1538887
  energy:             18.4235415

- temperature:        70.0000000
  free_energy:        16.5349859
  entropy:            34.7790656
  heat_capacity:      58.7605208
  energy:             18.9695204

- temperature:        80.0000000
  free_energy:        16.1454378
  entropy:            43.1030071
  heat_capacity:      65.8461163
  energy:             19.5936783

- temperature:        90.0000000
  free_energy:        15.6736598
  entropy:            51.2092399
  heat_capacity:      71.7442672
  energy:             20.2824914

- temperature:       100.0000000
  free_energy:        15.1221971
  entropy:            59.0335660
  heat_capacity:      76.7369580
  energy:             21.0255537

- temperature:       110.0000000
  free_energy:        14.4940044
  entropy:            66.5537935
  heat_capacity:      81.0349460
  energy:             21.8149217

- temperature:       120.0000000
  free_energy:        13.7921384
  entropy:            73.7691912
  heat_capacity:      84.7880847
  energy:             22.6444414

- temperature:       130.0000000
  free_energy:        13.0196051
  entropy:            80.6893590
  heat_capacity:      88.1017616
  energy:             23.5092218

- temperature:       140.0000000
  free_energy:        12.1792885
  entropy:            87.3284002
  heat_capacity:      91.0511613
  energy:             24.4052645

- temperature:       150.0000000
  free_energy:        11.2739221
  entropy:            93.7019631
  heat_capacity:      93.6915862
  energy:             25.3292165

- temperature:       160.0000000
  free_energy:        10.3060816
  entropy:            99.8257910
  heat_capacity:      96.0653091
  energy:             26.2782082

- temperature:       170.0000000
  free_energy:         9.2781880
  entropy:           105.7150487
  heat_capacity:      98.2059221
  energy:             27.2497463

- temperature:       180.0000000
  free_energy:         8.1925148
  entropy:           111.3840408
  heat_capacity:     100.1410353
  energy:             28.2416421

- temperature:       190.0000000
  free_energy:         7.0511968
  entropy:           116.8461223
  heat_capacity:     101.8939475
  energy:             29.2519601

- temperature:       200.0000000
  free_energy:         5.8562406
  entropy:           122.1137011
  heat_capacity:     103.4846923
  energy:             30.2789808

- temperature:       210.0000000
  free_energy:         4.6095327
  entropy:           127.1982811
  heat_capacity:     104.9307156
  energy:             31.3211717

- temperature:       220.0000000
  free_energy:         3.3128493
  entropy:           132.1105210
  heat_capacity:     106.2473335
  energy:             32.3771639

- temperature:       230.0000000
  free_energy:         1.9678637
  entropy:           136.8602979
  heat_capacity:     107.4480604
  energy:             33.4457323

- temperature:       240.0000000
  free_energy:         0.5761543
  entropy:           141.4567690
  heat_capacity:     108.5448577
  energy:             34.5257789

- temperature:       250.0000000
  free_energy:        -0.8607890
  entropy:           145.9084299
  heat_capacity:     109.5483330
  energy:             35.6163185

- temperature:       260.0000000
  free_energy:        -2.3415580
  entropy:           150.2231689
  heat_capacity:     110.4679046
  energy:             36.7164660

- temperature:       270.0000000
  free_energy:        -3.8648205
  entropy:           154.4083161
  heat_capacity:     111.3119431
  energy:             37.8254249

- temperature:       280.0000000
  free_energy:        -5.4293151
  entropy:           158.4706894
  heat_capacity:     112.0878935
  energy:             38.9424779

- temperature:       290.0000000
  free_energy:        -7.0338462
  entropy:           162.4166351
  heat_capacity:     112.8023829
  energy:             40.0669780

- temperature:       300.0000000
  free_energy:        -8.6772795
  entropy:           166.2520664
  heat_capacity:     113.4613153
  energy:             41.1983405

- temperature:       310.0000000
  free_energy:       -10.3585376
  entropy:           169.9824977
  heat_capacity:     114.0699547
  energy:             42.3360367

- temperature:       320.0000000
  free_energy:       -12.0765966
  entropy:           173.6130758
  heat_capacity:     114.6329999
  energy:             43.4795877

- temperature:       330.0000000
  free_energy:       -13.8304823
  entropy:           177.1486093
  heat_capacity:     115.1546487
  energy:             44.6285588

- temperature:       340.0000000
  free_energy:       -15.6192670
  entropy:           180.5935947
  heat_capacity:     115.6386565
  energy:             45.7825552

- temperature:       350.0000000
  free_energy:       -17.4420664
  entropy:           183.9522403
  heat_capacity:     116.0883863
  energy:             46.9412177

- temperature:       360.0000000
  free_energy:       -19.2980372
  entropy:           187.2284887
  heat_capacity:     116.5068543
  energy:             48.1042188

- temperature:       370.0000000
  free_energy:       -21.1863739
  entropy:           190.4260365
  heat_capacity:     116.8967683
  energy:             49.2712596

- temperature:       380.0000000
  free_energy:       -23.1063071
  entropy:           193.5483532
  heat_capacity:     117.2605633
  energy:             50.4420671

- temperature:       390.0000000
  free_energy:       -25.0571011
  entropy:           196.5986980
  heat_capacity:     117.6004317
  energy:             51.6163911

- temperature:       400.0000000
  free_energy:       -27.0380514
  entropy:           199.5801350
  heat_capacity:     117.9183502
  energy:             52.7940026

- temperature:       410.0000000
  free_energy:       -29.0484837
  entropy:           202.4955480
  heat_capacity:     118.2161038
  energy:             53.9746910

- temperature:       420.0000000
  free_energy:       -31.0877514
  entropy:           205.3476529
  heat_capacity:     118.4953063
  energy:             55.1582628

- temperature:       430.0000000
  free_energy:       -33.1552343
  entropy:           208.1390103
  heat_capacity:     118.7574190
  energy:             56.3445401

- temperature:       440.0000000
  free_energy:       -35.2503372
  entropy:           210.8720360
  heat_capacity:     119.0037670
  energy:             57.5333587

- temperature:       450.0000000
  free_energy:       -37.3724882
  entropy:           213.5490114
  heat_capacity:     119.2355537
  energy:             58.7245669

- temperature:       460.0000000
  free_energy:       -39.5211378
  entropy:           216.1720927
  heat_capacity:     119.4538730
  energy:             59.9180249

- temperature:       470.0000000
  free_energy:       -41.6957572
  entropy:           218.7433193
  heat_capacity:     119.6597213
  energy:             61.1136028

- temperature:       480.0000000
  free_energy:       -43.8958377
  entropy:           221.2646219
  heat_capacity:     119.8540067
  energy:             62.3111808

- temperature:       490.0000000
  free_energy:       -46.1208893
  entropy:           223.7378297
  heat_capacity:     120.0375588
  energy:             63.5106472

- temperature:       500.0000000
  free_energy:       -48.3704398
  entropy:           226.1646770
  heat_capacity:     120.2111355
  energy:             64.7118987

- temperature:       510.0000000
  free_energy:       -50.6440338
  entropy:           228.5468095
  heat_capacity:     120.3754310
  energy:             65.9148390

- temperature:       520.0000000
  free_energy:       -52.9412322
  entropy:           230.8857897
  heat_capacity:     120.5310812
  energy:             67.1193785

- temperature:       530.0000000
  free_energy:       -55.2616108
  entropy:           233.1831028
  heat_capacity:     120.6786700
  energy:             68.3254337

- temperature:       540.0000000
  free_energy:       -57.6047601
  entropy:           235.4401609
  heat_capacity:     120.8187335
  energy:             69.5329268

- temperature:       550.0000000
  free_energy:       -59.9702843
  entropy:           237.6583077
  heat_capacity:     120.9517652
  energy:             70.7417850

- temperature:       560.0000000
  free_energy:       -62.3578008
  entropy:           239.8388232
  heat_capacity:     121.0782195
  energy:             71.9519402

- temperature:       570.0000000
  free_energy:       -64.7669394
  entropy:           241.9829267
  heat_capacity:     121.1985152
  energy:             73.1633288

- temperature:       580.0000000
  free_energy:       -67.1973418
  entropy:           244.0917812
  heat_capacity:     121.3130392
  energy:             74.3758913

- temperature:       590.0000000
  free_energy:       -69.6486612
  entropy:           246.1664962
  heat_capacity:     121.4221488
  energy:             75.5895716

- temperature:       600.0000000
  free_energy:       -72.1205615
  entropy:           248.2081313
  heat_capacity:     121.5261746
  energy:             76.8043173

- temperature:       610.0000000
  free_energy:       -74.6127169
  entropy:           250.2176985
  heat_capacity:     121.6254228
  energy:             78.0200792

- temperature:       620.0000000
  free_energy:       -77.1248118
  entropy:           252.1961654
  heat_capacity:     121.7201772
  energy:             79.2368108

- temperature:       630.0000000
  free_energy:       -79.6565397
  entropy:           254.1444576
  heat_capacity:     121.8107012
  energy:             80.4544686

- temperature:       640.0000000
  free_energy:       -82.2076033
  entropy:           256.0634607
  heat_capacity:     121.8972393
  energy:             81.6730115

- temperature:       650.0000000
  free_energy:       -84.7777141
  entropy:           257.9540230
  heat_capacity:     121.9800192
  energy:             82.8924009

- temperature:       660.0000000
  free_energy:       -87.3665917
  entropy:           259.8169572
  heat_capacity:     122.0592524
  energy:             84.1126001

- temperature:       670.0000000
  free_energy:       -89.9739637
  entropy:           261.6530425
  heat_capacity:     122.1351361
  energy:             85.3335747

- temperature:       680.0000000
  free_energy:       -92.5995655
  entropy:           263.4630262
  heat_capacity:     122.2078543
  energy:             86.5552923

- temperature:       690.0000000
  free_energy:       -95.2431397
  entropy:           265.2476254
  heat_capacity:     122.2775784
  energy:             87.7777218

- temperature:       700.0000000
  free_energy:       -97.9044357
  entropy:           267.0075287
  heat_capacity:     122.3444687
  energy:             89.0008344

- temperature:       710.0000000
  free_energy:      -100.5832101
  entropy:           268.7433977
  heat_capacity:     122.4086750
  energy:             90.2246023

- temperature:       720.0000000
  free_energy:      -103.2792257
  entropy:           270.4558682
  heat_capacity:     122.4703374
  energy:             91.4489994

- temperature:       730.0000000
  free_energy:      -105.9922515
  entropy:           272.1455514
  heat_capacity:     122.5295872
  energy:             92.6740010

- temperature:       740.0000000
  free_energy:      -108.7220627
  entropy:           273.8130354
  heat_capacity:     122.5865472
  energy:             93.8995835

- temperature:       750.0000000
  free_energy:      -111.4684401
  entropy:           275.4588864
  heat_capacity:     122.6413328
  energy:             95.1257247

- temperature:       760.0000000
  free_energy:      -114.2311702
  entropy:           277.0836493
  heat_capacity:     122.6940522
  energy:             96.3524033

- temperature:       770.0000000
  free_energy:      -117.0100446
  entropy:           278.6878490
  heat_capacity:     122.7448070
  energy:             97.5795992

- temperature:       780.0000000
  free_energy:      -119.8048603
  entropy:           280.2719916
  heat_capacity:     122.7936926
  energy:             98.8072932

- temperature:       790.0000000
  free_energy:      -122.6154192
  entropy:           281.8365649
  heat_capacity:     122.8407990
  energy:            100.0354671

- temperature:       800.0000000
  free_energy:      -125.4415279
  entropy:           283.3820393
  heat_capacity:     122.8862107
  energy:            101.2641035

- temperature:       810.0000000
  free_energy:      -128.2829978
  entropy:           284.9088688
  heat_capacity:     122.9300073
  energy:            102.4931859

- temperature:       820.0000000
  free_energy:      -131.1396446
  entropy:           286.4174916
  heat_capacity:     122.9722639
  energy:            103.7226985

- temperature:       830.0000000
  free_energy:      -134.0112884
  entropy:           287.9083309
  heat_capacity:     123.0130512
  energy:            104.9526263

- temperature:       840.0000000
  free_energy:      -136.8977533
  entropy:           289.3817955
  heat_capacity:     123.0524360
  energy:            106.1829549

- temperature:       850.0000000
  free_energy:      -139.7988677
  entropy:           290.8382803
  heat_capacity:     123.0904814
  energy:            107.4136706

- temperature:       860.0000000
  free_energy:      -142.7144636
  entropy:           292.2781673
  heat_capacity:     123.1272470
  energy:            108.6447603

- temperature:       870.0000000
  free_energy:      -145.6443769
  entropy:           293.7018257
  heat_capacity:     123.1627892
  energy:            109.8762114

- temperature:       880.0000000
  free_energy:      -148.5884472
  entropy:           295.1096129
  heat_capacity:     123.1971611
  energy:            111.1080121

- temperature:       890.0000000
  free_energy:      -151.5465174
  entropy:           296.5018746
  heat_capacity:     123.2304133
  energy:            112.3401509

- temperature:       900.0000000
  free_energy:      -154.5184341
  entropy:           297.8789454
  heat_capacity:     123.2625936
  energy:            113.5726168

- temperature:       910.0000000
  free_energy:      -157.5040468
  entropy:           299.2411496
  heat_capacity:     123.2937471
  energy:            114.8053994

- temperature:       920.0000000
  free_energy:      -160.5032085
  entropy:           300.5888011
  heat_capacity:     123.3239169
  energy:            116.0384885

- temperature:       930.0000000
  free_energy:      -163.5157753
  entropy:           301.9222042
  heat_capacity:     123.3531437
  energy:            117.2718746

- temperature:       940.0000000
  free_energy:      -166.5416061
  entropy:           303.2416537
  heat_capacity:     123.3814660
  energy:            118.5055483

- temperature:       950.0000000
  free_energy:      -169.5805628
  entropy:           304.5474356
  heat_capacity:     123.4089207
  energy:            119.7395010

- temperature:       960.0000000
  free_energy:      -172.6325102
  entropy:           305.8398273
  heat_capacity:     123.4355425
  energy:            120.9737240

- temperature:       970.0000000
  free_energy:      -175.6973156
  entropy:           307.1190978
  heat_capacity:     123.4613646
  energy:            122.2082092

- temperature:       980.0000000
  free_energy:      -178.7748493
  entropy:           308.3855082
  heat_capacity:     123.4864186
  energy:            123.4429487

- temperature:       990.0000000
  free_energy:      -181.8649838
  entropy:           309.6393120
  heat_capacity:     123.5107344
  energy:            124.6779351

- temperature:      1000.0000000
  free_energy:      -184.9675943
  entropy:           310.8807554
  heat_capacity:     123.5343406
  energy:            125.9131610
