# Thermal properties / unit cell (natom)

unit:
  temperature:   K
  free_energy:   kJ/mol
  entropy:       J/K/mol
  heat_capacity: J/K/mol

natom: 30   
cutoff_frequency:    0.000
num_modes: 46080
num_integrated_modes: 44262

zero_point_energy:      62.2358348
high_T_entropy:       3210.3743431

thermal_properties:
- temperature:         0.0000000
  free_energy:        62.2358348
  entropy:             0.0000000
  heat_capacity:       0.0000000
  energy:             62.2358348

- temperature:        10.0000000
  free_energy:        62.1903145
  entropy:            14.3247051
  heat_capacity:      32.5354128
  energy:             62.3335616

- temperature:        20.0000000
  free_energy:        61.8196792
  entropy:            65.2555184
  heat_capacity:     130.2249373
  energy:             63.1247895

- temperature:        30.0000000
  free_energy:        60.8162221
  entropy:           137.2989419
  heat_capacity:     229.5175949
  energy:             64.9351903

- temperature:        40.0000000
  free_energy:        59.0556719
  entropy:           215.0393840
  heat_capacity:     311.8666922
  energy:             67.6572473

- temperature:        50.0000000
  free_energy:        56.5186562
  entropy:           291.9349561
  heat_capacity:     377.1661208
  energy:             71.1154040

- temperature:        60.0000000
  free_energy:        53.2284643
  entropy:           365.4361661
  heat_capacity:     428.6801013
  energy:             75.1546342

- temperature:        70.0000000
  free_energy:        49.2240727
  entropy:           434.7181180
  heat_capacity:     469.7674270
  energy:             79.6543410

- temperature:        80.0000000
  free_energy:        44.5484826
  entropy:           499.6948747
  heat_capacity:     503.0564099
  energy:             84.5240726

- temperature:        90.0000000
  free_energy:        39.2438317
  entropy:           560.5776961
  heat_capacity:     530.4336237
  energy:             89.6958243

- temperature:       100.0000000
  free_energy:        33.3495322
  entropy:           617.6799204
  heat_capacity:     553.2322984
  energy:             95.1175242

- temperature:       110.0000000
  free_energy:        26.9017263
  entropy:           671.3336533
  heat_capacity:     572.4101809
  energy:            100.7484282

- temperature:       120.0000000
  free_energy:        19.9332934
  entropy:           721.8561821
  heat_capacity:     588.6747323
  energy:            106.5560352

- temperature:       130.0000000
  free_energy:        12.4740682
  entropy:           769.5380641
  heat_capacity:     602.5634845
  energy:            112.5140166

- temperature:       140.0000000
  free_energy:         4.5511273
  entropy:           814.6404420
  heat_capacity:     614.4946579
  energy:            118.6007891

- temperature:       150.0000000
  free_energy:        -3.8109212
  entropy:           857.3961160
  heat_capacity:     624.7996393
  energy:            124.7984962

- temperature:       160.0000000
  free_energy:       -12.5896650
  entropy:           898.0119940
  heat_capacity:     633.7446052
  energy:            131.0922541

- temperature:       170.0000000
  free_energy:       -21.7646434
  entropy:           936.6718978
  heat_capacity:     641.5455423
  energy:            137.4695792

- temperature:       180.0000000
  free_energy:       -31.3171299
  entropy:           973.5392981
  heat_capacity:     648.3790995
  energy:            143.9199438

- temperature:       190.0000000
  free_energy:       -41.2299415
  entropy:          1008.7598188
  heat_capacity:     654.3906832
  energy:            150.4344241

- temperature:       200.0000000
  free_energy:       -51.4872715
  entropy:          1042.4634623
  heat_capacity:     659.7006443
  energy:            157.0054209

- temperature:       210.0000000
  free_energy:       -62.0745436
  entropy:          1074.7665586
  heat_capacity:     664.4090891
  energy:            163.6264337

- temperature:       220.0000000
  free_energy:       -72.9782832
  entropy:          1105.7734599
  heat_capacity:     668.5996677
  energy:            170.2918780

- temperature:       230.0000000
  free_energy:       -84.1860059
  entropy:          1135.5780089
  heat_capacity:     672.3425845
  energy:            176.9969361

- temperature:       240.0000000
  free_energy:       -95.6861185
  entropy:          1164.2648090
  heat_capacity:     675.6970069
  energy:            183.7374357

- temperature:       250.0000000
  free_energy:      -107.4678320
  entropy:          1191.9103238
  heat_capacity:     678.7130033
  energy:            190.5097490

- temperature:       260.0000000
  free_energy:      -119.5210856
  entropy:          1218.5838299
  heat_capacity:     681.4331102
  energy:            197.3107101

- temperature:       270.0000000
  free_energy:      -131.8364789
  entropy:          1244.3482418
  heat_capacity:     683.8936044
  energy:            204.1375464

- temperature:       280.0000000
  free_energy:      -144.4052116
  entropy:          1269.2608302
  heat_capacity:     686.1255403
  energy:            210.9878209

- temperature:       290.0000000
  free_energy:      -157.2190307
  entropy:          1293.3738463
  heat_capacity:     688.1555988
  energy:            217.8593847

- temperature:       300.0000000
  free_energy:      -170.2701830
  entropy:          1316.7350664
  heat_capacity:     690.0067842
  energy:            224.7503369

- temperature:       310.0000000
  free_energy:      -183.5513724
  entropy:          1339.3882682
  heat_capacity:     691.6989990
  energy:            231.6589908

- temperature:       320.0000000
  free_energy:      -197.0557226
  entropy:          1361.3736484
  heat_capacity:     693.2495201
  energy:            238.5838448

- temperature:       330.0000000
  free_energy:      -210.7767429
  entropy:          1382.7281882
  heat_capacity:     694.6733926
  energy:            245.5235592

- temperature:       340.0000000
  free_energy:      -224.7082975
  entropy:          1403.4859766
  heat_capacity:     695.9837600
  energy:            252.4769345

- temperature:       350.0000000
  free_energy:      -238.8445784
  entropy:          1423.6784944
  heat_capacity:     697.1921387
  energy:            259.4428946

- temperature:       360.0000000
  free_energy:      -253.1800805
  entropy:          1443.3348658
  heat_capacity:     698.3086488
  energy:            266.4204712

- temperature:       370.0000000
  free_energy:      -267.7095788
  entropy:          1462.4820810
  heat_capacity:     699.3422087
  energy:            273.4087912

- temperature:       380.0000000
  free_energy:      -282.4281086
  entropy:          1481.1451944
  heat_capacity:     700.3006993
  energy:            280.4070652

- temperature:       390.0000000
  free_energy:      -297.3309468
  entropy:          1499.3475003
  heat_capacity:     701.1911025
  energy:            287.4145783

- temperature:       400.0000000
  free_energy:      -312.4135951
  entropy:          1517.1106904
  heat_capacity:     702.0196201
  energy:            294.4306811

- temperature:       410.0000000
  free_energy:      -327.6717645
  entropy:          1534.4549936
  heat_capacity:     702.7917740
  energy:            301.4547829

- temperature:       420.0000000
  free_energy:      -343.1013618
  entropy:          1551.3993022
  heat_capacity:     703.5124923
  energy:            308.4863452

- temperature:       430.0000000
  free_energy:      -358.6984762
  entropy:          1567.9612844
  heat_capacity:     704.1861838
  energy:            315.5248760

- temperature:       440.0000000
  free_energy:      -374.4593683
  entropy:          1584.1574855
  heat_capacity:     704.8168007
  energy:            322.5699253

- temperature:       450.0000000
  free_energy:      -390.3804585
  entropy:          1600.0034197
  heat_capacity:     705.4078939
  energy:            329.6210803

- temperature:       460.0000000
  free_energy:      -406.4583178
  entropy:          1615.5136520
  heat_capacity:     705.9626602
  energy:            336.6779621

- temperature:       470.0000000
  free_energy:      -422.6896583
  entropy:          1630.7018731
  heat_capacity:     706.4839833
  energy:            343.7402221

- temperature:       480.0000000
  free_energy:      -439.0713249
  entropy:          1645.5809665
  heat_capacity:     706.9744694
  energy:            350.8075390

- temperature:       490.0000000
  free_energy:      -455.6002877
  entropy:          1660.1630700
  heat_capacity:     707.4364785
  energy:            357.8796166

- temperature:       500.0000000
  free_energy:      -472.2736346
  entropy:          1674.4596308
  heat_capacity:     707.8721513
  energy:            364.9561808

- temperature:       510.0000000
  free_energy:      -489.0885646
  entropy:          1688.4814567
  heat_capacity:     708.2834331
  energy:            372.0369783

- temperature:       520.0000000
  free_energy:      -506.0423820
  entropy:          1702.2387618
  heat_capacity:     708.6720943
  energy:            379.1217741

- temperature:       530.0000000
  free_energy:      -523.1324904
  entropy:          1715.7412086
  heat_capacity:     709.0397494
  energy:            386.2103502

- temperature:       540.0000000
  free_energy:      -540.3563872
  entropy:          1728.9979467
  heat_capacity:     709.3878723
  energy:            393.3025040

- temperature:       550.0000000
  free_energy:      -557.7116592
  entropy:          1742.0176478
  heat_capacity:     709.7178111
  energy:            400.3980471

- temperature:       560.0000000
  free_energy:      -575.1959775
  entropy:          1754.8085380
  heat_capacity:     710.0308004
  energy:            407.4968037

- temperature:       570.0000000
  free_energy:      -592.8070934
  entropy:          1767.3784276
  heat_capacity:     710.3279728
  energy:            414.5986103

- temperature:       580.0000000
  free_energy:      -610.5428342
  entropy:          1779.7347382
  heat_capacity:     710.6103684
  energy:            421.7033140

- temperature:       590.0000000
  free_energy:      -628.4010998
  entropy:          1791.8845278
  heat_capacity:     710.8789439
  energy:            428.8107717

- temperature:       600.0000000
  free_energy:      -646.3798588
  entropy:          1803.8345141
  heat_capacity:     711.1345802
  energy:            435.9208497

- temperature:       610.0000000
  free_energy:      -664.4771454
  entropy:          1815.5910955
  heat_capacity:     711.3780898
  energy:            443.0334228

- temperature:       620.0000000
  free_energy:      -682.6910564
  entropy:          1827.1603709
  heat_capacity:     711.6102228
  energy:            450.1483736

- temperature:       630.0000000
  free_energy:      -701.0197479
  entropy:          1838.5481581
  heat_capacity:     711.8316725
  energy:            457.2655917

- temperature:       640.0000000
  free_energy:      -719.4614331
  entropy:          1849.7600104
  heat_capacity:     712.0430804
  energy:            464.3849736

- temperature:       650.0000000
  free_energy:      -738.0143793
  entropy:          1860.8012326
  heat_capacity:     712.2450411
  energy:            471.5064218

- temperature:       660.0000000
  free_energy:      -756.6769059
  entropy:          1871.6768949
  heat_capacity:     712.4381059
  energy:            478.6298447

- temperature:       670.0000000
  free_energy:      -775.4473816
  entropy:          1882.3918471
  heat_capacity:     712.6227869
  energy:            485.7551560

- temperature:       680.0000000
  free_energy:      -794.3242226
  entropy:          1892.9507305
  heat_capacity:     712.7995597
  energy:            492.8822741

- temperature:       690.0000000
  free_energy:      -813.3058908
  entropy:          1903.3579900
  heat_capacity:     712.9688673
  energy:            500.0111223

- temperature:       700.0000000
  free_energy:      -832.3908912
  entropy:          1913.6178846
  heat_capacity:     713.1311219
  energy:            507.1416280

- temperature:       710.0000000
  free_energy:      -851.5777709
  entropy:          1923.7344978
  heat_capacity:     713.2867080
  energy:            514.2737225

- temperature:       720.0000000
  free_energy:      -870.8651167
  entropy:          1933.7117469
  heat_capacity:     713.4359842
  energy:            521.4073411

- temperature:       730.0000000
  free_energy:      -890.2515538
  entropy:          1943.5533920
  heat_capacity:     713.5792856
  energy:            528.5424223

- temperature:       740.0000000
  free_energy:      -909.7357445
  entropy:          1953.2630439
  heat_capacity:     713.7169254
  energy:            535.6789079

- temperature:       750.0000000
  free_energy:      -929.3163863
  entropy:          1962.8441723
  heat_capacity:     713.8491966
  energy:            542.8167429

- temperature:       760.0000000
  free_energy:      -948.9922107
  entropy:          1972.3001126
  heat_capacity:     713.9763735
  energy:            549.9558749

- temperature:       770.0000000
  free_energy:      -968.7619820
  entropy:          1981.6340730
  heat_capacity:     714.0987134
  energy:            557.0962543

- temperature:       780.0000000
  free_energy:      -988.6244959
  entropy:          1990.8491407
  heat_capacity:     714.2164575
  energy:            564.2378338

- temperature:       790.0000000
  free_energy:     -1008.5785784
  entropy:          1999.9482877
  heat_capacity:     714.3298321
  energy:            571.3805688

- temperature:       800.0000000
  free_energy:     -1028.6230848
  entropy:          2008.9343768
  heat_capacity:     714.4390500
  energy:            578.5244166

- temperature:       810.0000000
  free_energy:     -1048.7568983
  entropy:          2017.8101666
  heat_capacity:     714.5443111
  energy:            585.6693367

- temperature:       820.0000000
  free_energy:     -1068.9789293
  entropy:          2026.5783166
  heat_capacity:     714.6458035
  energy:            592.8152903

- temperature:       830.0000000
  free_energy:     -1089.2881144
  entropy:          2035.2413917
  heat_capacity:     714.7437044
  energy:            599.9622408

- temperature:       840.0000000
  free_energy:     -1109.6834152
  entropy:          2043.8018668
  heat_capacity:     714.8381806
  energy:            607.1101530

- temperature:       850.0000000
  free_energy:     -1130.1638177
  entropy:          2052.2621308
  heat_capacity:     714.9293895
  energy:            614.2589935

- temperature:       860.0000000
  free_energy:     -1150.7283314
  entropy:          2060.6244905
  heat_capacity:     715.0174795
  energy:            621.4087304

- temperature:       870.0000000
  free_energy:     -1171.3759886
  entropy:          2068.8911744
  heat_capacity:     715.1025907
  energy:            628.5593331

- temperature:       880.0000000
  free_energy:     -1192.1058432
  entropy:          2077.0643362
  heat_capacity:     715.1848555
  energy:            635.7107727

- temperature:       890.0000000
  free_energy:     -1212.9169705
  entropy:          2085.1460581
  heat_capacity:     715.2643989
  energy:            642.8630212

- temperature:       900.0000000
  free_energy:     -1233.8084663
  entropy:          2093.1383536
  heat_capacity:     715.3413394
  energy:            650.0160520

- temperature:       910.0000000
  free_energy:     -1254.7794460
  entropy:          2101.0431711
  heat_capacity:     715.4157889
  energy:            657.1698397

- temperature:       920.0000000
  free_energy:     -1275.8290444
  entropy:          2108.8623959
  heat_capacity:     715.4878535
  energy:            664.3243598

- temperature:       930.0000000
  free_energy:     -1296.9564147
  entropy:          2116.5978536
  heat_capacity:     715.5576337
  energy:            671.4795891

- temperature:       940.0000000
  free_energy:     -1318.1607281
  entropy:          2124.2513121
  heat_capacity:     715.6252247
  energy:            678.6355052

- temperature:       950.0000000
  free_energy:     -1339.4411733
  entropy:          2131.8244842
  heat_capacity:     715.6907169
  energy:            685.7920866

- temperature:       960.0000000
  free_energy:     -1360.7969557
  entropy:          2139.3190298
  heat_capacity:     715.7541961
  energy:            692.9493128

- temperature:       970.0000000
  free_energy:     -1382.2272972
  entropy:          2146.7365581
  heat_capacity:     715.8157437
  energy:            700.1071641

- temperature:       980.0000000
  free_energy:     -1403.7314354
  entropy:          2154.0786295
  heat_capacity:     715.8754370
  energy:            707.2656215

- temperature:       990.0000000
  free_energy:     -1425.3086233
  entropy:          2161.3467578
  heat_capacity:     715.9333497
  energy:            714.4246669

- temperature:      1000.0000000
  free_energy:     -1446.9581290
  entropy:          2168.5424118
  heat_capacity:     715.9895517
  energy:            721.5842828
