# Thermal properties / unit cell (natom)

unit:
  temperature:   K
  free_energy:   kJ/mol
  entropy:       J/K/mol
  heat_capacity: J/K/mol

natom: 5    
cutoff_frequency:    0.000
num_modes: 7680
num_integrated_modes: 5832

zero_point_energy:      19.1869087
high_T_entropy:        335.6513246

thermal_properties:
- temperature:         0.0000000
  free_energy:        19.1869087
  entropy:             0.0000000
  heat_capacity:       0.0000000
  energy:             19.1869087

- temperature:        10.0000000
  free_energy:        19.1859666
  entropy:             0.2472489
  heat_capacity:       0.3490289
  energy:             19.1884391

- temperature:        20.0000000
  free_energy:        19.1812818
  entropy:             0.7487053
  heat_capacity:       1.4025575
  energy:             19.1962559

- temperature:        30.0000000
  free_energy:        19.1693474
  entropy:             1.7436678
  heat_capacity:       3.9946394
  energy:             19.2216574

- temperature:        40.0000000
  free_energy:        19.1439772
  entropy:             3.4594823
  heat_capacity:       8.4083776
  energy:             19.2823565

- temperature:        50.0000000
  free_energy:        19.0976603
  entropy:             5.9191196
  heat_capacity:      13.9606575
  energy:             19.3936163

- temperature:        60.0000000
  free_energy:        19.0235671
  entropy:             8.9862520
  heat_capacity:      19.8765277
  energy:             19.5627422

- temperature:        70.0000000
  free_energy:        18.9164838
  entropy:            12.4897681
  heat_capacity:      25.6868729
  energy:             19.7907676

- temperature:        80.0000000
  free_energy:        18.7728134
  entropy:            16.2820037
  heat_capacity:      31.1696590
  energy:             20.0753737

- temperature:        90.0000000
  free_energy:        18.5902610
  entropy:            20.2500836
  heat_capacity:      36.2368001
  energy:             20.4127685

- temperature:       100.0000000
  free_energy:        18.3675034
  entropy:            24.3114098
  heat_capacity:      40.8653602
  energy:             20.7986444

- temperature:       110.0000000
  free_energy:        18.1039220
  entropy:            28.4065415
  heat_capacity:      45.0641722
  energy:             21.2286416

- temperature:       120.0000000
  free_energy:        17.7994025
  entropy:            32.4931208
  heat_capacity:      48.8579635
  energy:             21.6985770

- temperature:       130.0000000
  free_energy:        17.4541886
  entropy:            36.5413060
  heat_capacity:      52.2790984
  energy:             22.2045583

- temperature:       140.0000000
  free_energy:        17.0687740
  entropy:            40.5304300
  heat_capacity:      55.3627919
  energy:             22.7430342

- temperature:       150.0000000
  free_energy:        16.6438238
  entropy:            44.4465527
  heat_capacity:      58.1441901
  energy:             23.3108067

- temperature:       160.0000000
  free_energy:        16.1801167
  entropy:            48.2806566
  heat_capacity:      60.6566346
  energy:             23.9050218

- temperature:       170.0000000
  free_energy:        15.6785025
  entropy:            52.0273106
  heat_capacity:      62.9307322
  energy:             24.5231453

- temperature:       180.0000000
  free_energy:        15.1398717
  entropy:            55.6836791
  heat_capacity:      64.9939663
  energy:             25.1629339

- temperature:       190.0000000
  free_energy:        14.5651333
  entropy:            59.2487889
  heat_capacity:      66.8706553
  energy:             25.8224031

- temperature:       200.0000000
  free_energy:        13.9551990
  entropy:            62.7229876
  heat_capacity:      68.5821144
  energy:             26.4997965

- temperature:       210.0000000
  free_energy:        13.3109724
  entropy:            66.1075452
  heat_capacity:      70.1469220
  energy:             27.1935569

- temperature:       220.0000000
  free_energy:        12.6333406
  entropy:            69.4043617
  heat_capacity:      71.5812280
  energy:             27.9023002

- temperature:       230.0000000
  free_energy:        11.9231699
  entropy:            72.6157542
  heat_capacity:      72.8990628
  energy:             28.6247934

- temperature:       240.0000000
  free_energy:        11.1813017
  entropy:            75.7443015
  heat_capacity:      74.1126278
  energy:             29.3599341

- temperature:       250.0000000
  free_energy:        10.4085509
  entropy:            78.7927321
  heat_capacity:      75.2325557
  energy:             30.1067340

- temperature:       260.0000000
  free_energy:         9.6057048
  entropy:            81.7638437
  heat_capacity:      76.2681390
  energy:             30.8643042

- temperature:       270.0000000
  free_energy:         8.7735224
  entropy:            84.6604460
  heat_capacity:      77.2275253
  energy:             31.6318429

- temperature:       280.0000000
  free_energy:         7.9127350
  entropy:            87.4853204
  heat_capacity:      78.1178837
  energy:             32.4086247

- temperature:       290.0000000
  free_energy:         7.0240460
  entropy:            90.2411917
  heat_capacity:      78.9455452
  energy:             33.1939916

- temperature:       300.0000000
  free_energy:         6.1081323
  entropy:            92.9307102
  heat_capacity:      79.7161208
  energy:             33.9873454

- temperature:       310.0000000
  free_energy:         5.1656444
  entropy:            95.5564387
  heat_capacity:      80.4346009
  energy:             34.7881405

- temperature:       320.0000000
  free_energy:         4.1972079
  entropy:            98.1208459
  heat_capacity:      81.1054384
  energy:             35.5958786

- temperature:       330.0000000
  free_energy:         3.2034240
  entropy:           100.6263022
  heat_capacity:      81.7326195
  energy:             36.4101037

- temperature:       340.0000000
  free_energy:         2.1848708
  entropy:           103.0750784
  heat_capacity:      82.3197226
  energy:             37.2303975

- temperature:       350.0000000
  free_energy:         1.1421041
  entropy:           105.4693464
  heat_capacity:      82.8699692
  energy:             38.0563754

- temperature:       360.0000000
  free_energy:         0.0756586
  entropy:           107.8111807
  heat_capacity:      83.3862668
  energy:             38.8876837

- temperature:       370.0000000
  free_energy:        -1.0139513
  entropy:           110.1025612
  heat_capacity:      83.8712457
  energy:             39.7239963

- temperature:       380.0000000
  free_energy:        -2.1262307
  entropy:           112.3453761
  heat_capacity:      84.3272906
  energy:             40.5650122

- temperature:       390.0000000
  free_energy:        -3.2607030
  entropy:           114.5414254
  heat_capacity:      84.7565678
  energy:             41.4104530

- temperature:       400.0000000
  free_energy:        -4.4169091
  entropy:           116.6924250
  heat_capacity:      85.1610493
  energy:             42.2600609

- temperature:       410.0000000
  free_energy:        -5.5944067
  entropy:           118.8000099
  heat_capacity:      85.5425331
  energy:             43.1135973

- temperature:       420.0000000
  free_energy:        -6.7927697
  entropy:           120.8657385
  heat_capacity:      85.9026613
  energy:             43.9708404

- temperature:       430.0000000
  free_energy:        -8.0115870
  entropy:           122.8910961
  heat_capacity:      86.2429361
  energy:             44.8315844

- temperature:       440.0000000
  free_energy:        -9.2504618
  entropy:           124.8774986
  heat_capacity:      86.5647336
  energy:             45.6956376

- temperature:       450.0000000
  free_energy:       -10.5090116
  entropy:           126.8262961
  heat_capacity:      86.8693162
  energy:             46.5628217

- temperature:       460.0000000
  free_energy:       -11.7868667
  entropy:           128.7387762
  heat_capacity:      87.1578437
  energy:             47.4329704

- temperature:       470.0000000
  free_energy:       -13.0836702
  entropy:           130.6161675
  heat_capacity:      87.4313825
  energy:             48.3059286

- temperature:       480.0000000
  free_energy:       -14.3990770
  entropy:           132.4596424
  heat_capacity:      87.6909150
  energy:             49.1815514

- temperature:       490.0000000
  free_energy:       -15.7327537
  entropy:           134.2703202
  heat_capacity:      87.9373466
  energy:             50.0597032

- temperature:       500.0000000
  free_energy:       -17.0843776
  entropy:           136.0492701
  heat_capacity:      88.1715132
  energy:             50.9402574

- temperature:       510.0000000
  free_energy:       -18.4536367
  entropy:           137.7975136
  heat_capacity:      88.3941869
  energy:             51.8230952

- temperature:       520.0000000
  free_energy:       -19.8402288
  entropy:           139.5160270
  heat_capacity:      88.6060820
  energy:             52.7081052

- temperature:       530.0000000
  free_energy:       -21.2438613
  entropy:           141.2057441
  heat_capacity:      88.8078597
  energy:             53.5951831

- temperature:       540.0000000
  free_energy:       -22.6642507
  entropy:           142.8675582
  heat_capacity:      89.0001331
  energy:             54.4842307

- temperature:       550.0000000
  free_energy:       -24.1011223
  entropy:           144.5023241
  heat_capacity:      89.1834707
  energy:             55.3751560

- temperature:       560.0000000
  free_energy:       -25.5542097
  entropy:           146.1108605
  heat_capacity:      89.3584002
  energy:             56.2678721

- temperature:       570.0000000
  free_energy:       -27.0232547
  entropy:           147.6939514
  heat_capacity:      89.5254125
  energy:             57.1622976

- temperature:       580.0000000
  free_energy:       -28.5080065
  entropy:           149.2523482
  heat_capacity:      89.6849637
  energy:             58.0583555

- temperature:       590.0000000
  free_energy:       -30.0082217
  entropy:           150.7867715
  heat_capacity:      89.8374789
  energy:             58.9559734

- temperature:       600.0000000
  free_energy:       -31.5236643
  entropy:           152.2979121
  heat_capacity:      89.9833538
  energy:             59.8550830

- temperature:       610.0000000
  free_energy:       -33.0541046
  entropy:           153.7864331
  heat_capacity:      90.1229577
  energy:             60.7556196

- temperature:       620.0000000
  free_energy:       -34.5993197
  entropy:           155.2529710
  heat_capacity:      90.2566351
  energy:             61.6575224

- temperature:       630.0000000
  free_energy:       -36.1590928
  entropy:           156.6981371
  heat_capacity:      90.3847079
  energy:             62.5607336

- temperature:       640.0000000
  free_energy:       -37.7332131
  entropy:           158.1225187
  heat_capacity:      90.5074769
  energy:             63.4651988

- temperature:       650.0000000
  free_energy:       -39.3214758
  entropy:           159.5266803
  heat_capacity:      90.6252234
  energy:             64.3708664

- temperature:       660.0000000
  free_energy:       -40.9236812
  entropy:           160.9111646
  heat_capacity:      90.7382110
  energy:             65.2776875

- temperature:       670.0000000
  free_energy:       -42.5396352
  entropy:           162.2764937
  heat_capacity:      90.8466864
  energy:             66.1856156

- temperature:       680.0000000
  free_energy:       -44.1691489
  entropy:           163.6231703
  heat_capacity:      90.9508811
  energy:             67.0946069

- temperature:       690.0000000
  free_energy:       -45.8120380
  entropy:           164.9516779
  heat_capacity:      91.0510122
  energy:             68.0046197

- temperature:       700.0000000
  free_energy:       -47.4681234
  entropy:           166.2624824
  heat_capacity:      91.1472834
  energy:             68.9156143

- temperature:       710.0000000
  free_energy:       -49.1372302
  entropy:           167.5560328
  heat_capacity:      91.2398862
  energy:             69.8275531

- temperature:       720.0000000
  free_energy:       -50.8191880
  entropy:           168.8327616
  heat_capacity:      91.3290007
  energy:             70.7404004

- temperature:       730.0000000
  free_energy:       -52.5138307
  entropy:           170.0930860
  heat_capacity:      91.4147961
  energy:             71.6541221

- temperature:       740.0000000
  free_energy:       -54.2209964
  entropy:           171.3374083
  heat_capacity:      91.4974319
  energy:             72.5686858

- temperature:       750.0000000
  free_energy:       -55.9405269
  entropy:           172.5661167
  heat_capacity:      91.5770581
  energy:             73.4840607

- temperature:       760.0000000
  free_energy:       -57.6722679
  entropy:           173.7795859
  heat_capacity:      91.6538164
  energy:             74.4002174

- temperature:       770.0000000
  free_energy:       -59.4160690
  entropy:           174.9781778
  heat_capacity:      91.7278400
  energy:             75.3171279

- temperature:       780.0000000
  free_energy:       -61.1717830
  entropy:           176.1622417
  heat_capacity:      91.7992549
  energy:             76.2347655

- temperature:       790.0000000
  free_energy:       -62.9392665
  entropy:           177.3321155
  heat_capacity:      91.8681801
  energy:             77.1531047

- temperature:       800.0000000
  free_energy:       -64.7183791
  entropy:           178.4881254
  heat_capacity:      91.9347278
  energy:             78.0721212

- temperature:       810.0000000
  free_energy:       -66.5089839
  entropy:           179.6305871
  heat_capacity:      91.9990041
  energy:             78.9917917

- temperature:       820.0000000
  free_energy:       -68.3109467
  entropy:           180.7598058
  heat_capacity:      92.0611095
  energy:             79.9120940

- temperature:       830.0000000
  free_energy:       -70.1241368
  entropy:           181.8760768
  heat_capacity:      92.1211390
  energy:             80.8330069

- temperature:       840.0000000
  free_energy:       -71.9484261
  entropy:           182.9796860
  heat_capacity:      92.1791826
  energy:             81.7545102

- temperature:       850.0000000
  free_energy:       -73.7836893
  entropy:           184.0709100
  heat_capacity:      92.2353254
  energy:             82.6765843

- temperature:       860.0000000
  free_energy:       -75.6298039
  entropy:           185.1500169
  heat_capacity:      92.2896483
  energy:             83.5992106

- temperature:       870.0000000
  free_energy:       -77.4866501
  entropy:           186.2172661
  heat_capacity:      92.3422277
  energy:             84.5223714

- temperature:       880.0000000
  free_energy:       -79.3541105
  entropy:           187.2729092
  heat_capacity:      92.3931365
  energy:             85.4460496

- temperature:       890.0000000
  free_energy:       -81.2320704
  entropy:           188.3171901
  heat_capacity:      92.4424435
  energy:             86.3702288

- temperature:       900.0000000
  free_energy:       -83.1204172
  entropy:           189.3503451
  heat_capacity:      92.4902143
  energy:             87.2948934

- temperature:       910.0000000
  free_energy:       -85.0190410
  entropy:           190.3726035
  heat_capacity:      92.5365111
  energy:             88.2200282

- temperature:       920.0000000
  free_energy:       -86.9278337
  entropy:           191.3841876
  heat_capacity:      92.5813931
  energy:             89.1456189

- temperature:       930.0000000
  free_energy:       -88.8466899
  entropy:           192.3853133
  heat_capacity:      92.6249165
  energy:             90.0716515

- temperature:       940.0000000
  free_energy:       -90.7755058
  entropy:           193.3761901
  heat_capacity:      92.6671349
  energy:             90.9981128

- temperature:       950.0000000
  free_energy:       -92.7141802
  entropy:           194.3570213
  heat_capacity:      92.7080992
  energy:             91.9249900

- temperature:       960.0000000
  free_energy:       -94.6626134
  entropy:           195.3280044
  heat_capacity:      92.7478580
  energy:             92.8522708

- temperature:       970.0000000
  free_energy:       -96.6207081
  entropy:           196.2893313
  heat_capacity:      92.7864575
  energy:             93.7799433

- temperature:       980.0000000
  free_energy:       -98.5883685
  entropy:           197.2411885
  heat_capacity:      92.8239418
  energy:             94.7079962

- temperature:       990.0000000
  free_energy:      -100.5655009
  entropy:           198.1837570
  heat_capacity:      92.8603528
  energy:             95.6364186

- temperature:      1000.0000000
  free_energy:      -102.5520133
  entropy:           199.1172131
  heat_capacity:      92.8957308
  energy:             96.5651998
