# Thermal properties / unit cell (natom)

unit:
  temperature:   K
  free_energy:   kJ/mol
  entropy:       J/K/mol
  heat_capacity: J/K/mol

natom: 5    
cutoff_frequency:    0.000
num_modes: 7680
num_integrated_modes: 7680

zero_point_energy:      20.3287001
high_T_entropy:        465.4244741

thermal_properties:
- temperature:         0.0000000
  free_energy:        20.3287001
  entropy:             0.0000000
  heat_capacity:       0.0000000
  energy:             20.3287001

- temperature:        10.0000000
  free_energy:        20.3286219
  entropy:             0.0475747
  heat_capacity:       0.2323479
  energy:             20.3290976

- temperature:        20.0000000
  free_energy:        20.3247022
  entropy:             1.0233068
  heat_capacity:       3.8023417
  energy:             20.3451683

- temperature:        30.0000000
  free_energy:        20.3018737
  entropy:             3.8275359
  heat_capacity:      10.8205766
  energy:             20.4166998

- temperature:        40.0000000
  free_energy:        20.2435005
  entropy:             8.0300688
  heat_capacity:      18.8333935
  energy:             20.5647032

- temperature:        50.0000000
  free_energy:        20.1384026
  entropy:            13.1003532
  heat_capacity:      26.8809549
  energy:             20.7934202

- temperature:        60.0000000
  free_energy:        19.9797622
  entropy:            18.6942890
  heat_capacity:      34.6629112
  energy:             21.1014195

- temperature:        70.0000000
  free_energy:        19.7634886
  entropy:            24.5990750
  heat_capacity:      42.0698465
  energy:             21.4854239

- temperature:        80.0000000
  free_energy:        19.4872081
  entropy:            30.6770247
  heat_capacity:      49.0434009
  energy:             21.9413700

- temperature:        90.0000000
  free_energy:        19.1496889
  entropy:            36.8336141
  heat_capacity:      55.5441479
  energy:             22.4647141

- temperature:       100.0000000
  free_energy:        18.7505019
  entropy:            43.0009465
  heat_capacity:      61.5485413
  energy:             23.0505966

- temperature:       110.0000000
  free_energy:        18.2898019
  entropy:            49.1291308
  heat_capacity:      67.0498553
  energy:             23.6940063

- temperature:       120.0000000
  free_energy:        17.7681734
  entropy:            55.1814312
  heat_capacity:      72.0570129
  energy:             24.3899451

- temperature:       130.0000000
  free_energy:        17.1865160
  entropy:            61.1311817
  heat_capacity:      76.5913661
  energy:             25.1335696

- temperature:       140.0000000
  free_energy:        16.5459549
  entropy:            66.9595742
  heat_capacity:      80.6827440
  energy:             25.9202953

- temperature:       150.0000000
  free_energy:        15.8477717
  entropy:            72.6539424
  heat_capacity:      84.3657755
  energy:             26.7458631

- temperature:       160.0000000
  free_energy:        15.0933496
  entropy:            78.2063862
  heat_capacity:      87.6769558
  energy:             27.6063714

- temperature:       170.0000000
  free_energy:        14.2841316
  entropy:            83.6126601
  heat_capacity:      90.6525457
  energy:             28.4982838

- temperature:       180.0000000
  free_energy:        13.4215888
  entropy:            88.8712815
  heat_capacity:      93.3272066
  energy:             29.4184195

- temperature:       190.0000000
  free_energy:        12.5071964
  entropy:            93.9828227
  heat_capacity:      95.7332063
  energy:             30.3639327

- temperature:       200.0000000
  free_energy:        11.5424158
  entropy:            98.9493543
  heat_capacity:      97.9000349
  energy:             31.3322867

- temperature:       210.0000000
  free_energy:        10.5286823
  entropy:           103.7740136
  heat_capacity:      99.8542951
  energy:             32.3212251

- temperature:       220.0000000
  free_energy:         9.4673956
  entropy:           108.4606726
  heat_capacity:     101.6197664
  energy:             33.3287436

- temperature:       230.0000000
  free_energy:         8.3599143
  entropy:           113.0136848
  heat_capacity:     103.2175697
  energy:             34.3530618

- temperature:       240.0000000
  free_energy:         7.2075519
  entropy:           117.4376944
  heat_capacity:     104.6663835
  energy:             35.3925986

- temperature:       250.0000000
  free_energy:         6.0115745
  entropy:           121.7374941
  heat_capacity:     105.9826813
  energy:             36.4459480

- temperature:       260.0000000
  free_energy:         4.7731999
  entropy:           125.9179195
  heat_capacity:     107.1809675
  energy:             37.5118590

- temperature:       270.0000000
  free_energy:         3.4935980
  entropy:           129.9837730
  heat_capacity:     108.2740041
  energy:             38.5892167

- temperature:       280.0000000
  free_energy:         2.1738907
  entropy:           133.9397685
  heat_capacity:     109.2730187
  energy:             39.6770258

- temperature:       290.0000000
  free_energy:         0.8151535
  entropy:           137.7904939
  heat_capacity:     110.1878936
  energy:             40.7743967

- temperature:       300.0000000
  free_energy:        -0.5815831
  entropy:           141.5403850
  heat_capacity:     111.0273340
  energy:             41.8805324

- temperature:       310.0000000
  free_energy:        -2.0153323
  entropy:           145.1937096
  heat_capacity:     111.7990169
  energy:             42.9947177

- temperature:       320.0000000
  free_energy:        -3.4851491
  entropy:           148.7545582
  heat_capacity:     112.5097214
  energy:             44.1163096

- temperature:       330.0000000
  free_energy:        -4.9901283
  entropy:           152.2268399
  heat_capacity:     113.1654434
  energy:             45.2447289

- temperature:       340.0000000
  free_energy:        -6.5294031
  entropy:           155.6142824
  heat_capacity:     113.7714939
  energy:             46.3794529

- temperature:       350.0000000
  free_energy:        -8.1021430
  entropy:           158.9204341
  heat_capacity:     114.3325859
  energy:             47.5200090

- temperature:       360.0000000
  free_energy:        -9.7075521
  entropy:           162.1486691
  heat_capacity:     114.8529088
  energy:             48.6659688

- temperature:       370.0000000
  free_energy:       -11.3448674
  entropy:           165.3021921
  heat_capacity:     115.3361937
  energy:             49.8169437

- temperature:       380.0000000
  free_energy:       -13.0133570
  entropy:           168.3840457
  heat_capacity:     115.7857692
  energy:             50.9725803

- temperature:       390.0000000
  free_energy:       -14.7123190
  entropy:           171.3971172
  heat_capacity:     116.2046105
  energy:             52.1325567

- temperature:       400.0000000
  free_energy:       -16.4410793
  entropy:           174.3441457
  heat_capacity:     116.5953817
  energy:             53.2965790

- temperature:       410.0000000
  free_energy:       -18.1989905
  entropy:           177.2277298
  heat_capacity:     116.9604729
  energy:             54.4643788

- temperature:       420.0000000
  free_energy:       -19.9854306
  entropy:           180.0503349
  heat_capacity:     117.3020318
  energy:             55.6357100

- temperature:       430.0000000
  free_energy:       -21.7998017
  entropy:           182.8143003
  heat_capacity:     117.6219921
  energy:             56.8103474

- temperature:       440.0000000
  free_energy:       -23.6415286
  entropy:           185.5218461
  heat_capacity:     117.9220977
  energy:             57.9880837

- temperature:       450.0000000
  free_energy:       -25.5100576
  entropy:           188.1750801
  heat_capacity:     118.2039241
  energy:             59.1687285

- temperature:       460.0000000
  free_energy:       -27.4048558
  entropy:           190.7760040
  heat_capacity:     118.4688967
  energy:             60.3521060

- temperature:       470.0000000
  free_energy:       -29.3254097
  entropy:           193.3265195
  heat_capacity:     118.7183079
  energy:             61.5380545

- temperature:       480.0000000
  free_energy:       -31.2712242
  entropy:           195.8284343
  heat_capacity:     118.9533308
  energy:             62.7264243

- temperature:       490.0000000
  free_energy:       -33.2418221
  entropy:           198.2834670
  heat_capacity:     119.1750322
  energy:             63.9170768

- temperature:       500.0000000
  free_energy:       -35.2367427
  entropy:           200.6932529
  heat_capacity:     119.3843833
  energy:             65.1098837

- temperature:       510.0000000
  free_energy:       -37.2555415
  entropy:           203.0593485
  heat_capacity:     119.5822703
  energy:             66.3047262

- temperature:       520.0000000
  free_energy:       -39.2977890
  entropy:           205.3832359
  heat_capacity:     119.7695025
  energy:             67.5014936

- temperature:       530.0000000
  free_energy:       -41.3630702
  entropy:           207.6663273
  heat_capacity:     119.9468200
  energy:             68.7000832

- temperature:       540.0000000
  free_energy:       -43.4509841
  entropy:           209.9099691
  heat_capacity:     120.1149009
  energy:             69.9003993

- temperature:       550.0000000
  free_energy:       -45.5611424
  entropy:           212.1154454
  heat_capacity:     120.2743670
  energy:             71.1023525

- temperature:       560.0000000
  free_energy:       -47.6931698
  entropy:           214.2839815
  heat_capacity:     120.4257895
  energy:             72.3058598

- temperature:       570.0000000
  free_energy:       -49.8467028
  entropy:           216.4167475
  heat_capacity:     120.5696936
  energy:             73.5108433

- temperature:       580.0000000
  free_energy:       -52.0213893
  entropy:           218.5148612
  heat_capacity:     120.7065629
  energy:             74.7172302

- temperature:       590.0000000
  free_energy:       -54.2168881
  entropy:           220.5793910
  heat_capacity:     120.8368431
  energy:             75.9249526

- temperature:       600.0000000
  free_energy:       -56.4328686
  entropy:           222.6113584
  heat_capacity:     120.9609458
  energy:             77.1339465

- temperature:       610.0000000
  free_energy:       -58.6690100
  entropy:           224.6117412
  heat_capacity:     121.0792512
  energy:             78.3441522

- temperature:       620.0000000
  free_energy:       -60.9250012
  entropy:           226.5814752
  heat_capacity:     121.1921109
  energy:             79.5555134

- temperature:       630.0000000
  free_energy:       -63.2005403
  entropy:           228.5214566
  heat_capacity:     121.2998508
  energy:             80.7679773

- temperature:       640.0000000
  free_energy:       -65.4953341
  entropy:           230.4325443
  heat_capacity:     121.4027728
  energy:             81.9814943

- temperature:       650.0000000
  free_energy:       -67.8090976
  entropy:           232.3155620
  heat_capacity:     121.5011572
  energy:             83.1960176

- temperature:       660.0000000
  free_energy:       -70.1415544
  entropy:           234.1712994
  heat_capacity:     121.5952644
  energy:             84.4115032

- temperature:       670.0000000
  free_energy:       -72.4924352
  entropy:           236.0005145
  heat_capacity:     121.6853366
  energy:             85.6279095

- temperature:       680.0000000
  free_energy:       -74.8614787
  entropy:           237.8039352
  heat_capacity:     121.7715991
  energy:             86.8451972

- temperature:       690.0000000
  free_energy:       -77.2484303
  entropy:           239.5822605
  heat_capacity:     121.8542620
  energy:             88.0633295

- temperature:       700.0000000
  free_energy:       -79.6530425
  entropy:           241.3361623
  heat_capacity:     121.9335211
  energy:             89.2822711

- temperature:       710.0000000
  free_energy:       -82.0750743
  entropy:           243.0662865
  heat_capacity:     122.0095594
  energy:             90.5019892

- temperature:       720.0000000
  free_energy:       -84.5142910
  entropy:           244.7732544
  heat_capacity:     122.0825476
  energy:             91.7224522

- temperature:       730.0000000
  free_energy:       -86.9704642
  entropy:           246.4576639
  heat_capacity:     122.1526455
  energy:             92.9436305

- temperature:       740.0000000
  free_energy:       -89.4433710
  entropy:           248.1200905
  heat_capacity:     122.2200025
  energy:             94.1654959

- temperature:       750.0000000
  free_energy:       -91.9327946
  entropy:           249.7610886
  heat_capacity:     122.2847588
  energy:             95.3880219

- temperature:       760.0000000
  free_energy:       -94.4385232
  entropy:           251.3811922
  heat_capacity:     122.3470454
  energy:             96.6111829

- temperature:       770.0000000
  free_energy:       -96.9603505
  entropy:           252.9809161
  heat_capacity:     122.4069857
  energy:             97.8349549

- temperature:       780.0000000
  free_energy:       -99.4980752
  entropy:           254.5607569
  heat_capacity:     122.4646952
  energy:             99.0593152

- temperature:       790.0000000
  free_energy:      -102.0515009
  entropy:           256.1211933
  heat_capacity:     122.5202825
  energy:            100.2842418

- temperature:       800.0000000
  free_energy:      -104.6204359
  entropy:           257.6626875
  heat_capacity:     122.5738498
  energy:            101.5097141

- temperature:       810.0000000
  free_energy:      -107.2046930
  entropy:           259.1856857
  heat_capacity:     122.6254932
  energy:            102.7357124

- temperature:       820.0000000
  free_energy:      -109.8040894
  entropy:           260.6906186
  heat_capacity:     122.6753031
  energy:            103.9622178

- temperature:       830.0000000
  free_energy:      -112.4184466
  entropy:           262.1779026
  heat_capacity:     122.7233649
  energy:            105.1892126

- temperature:       840.0000000
  free_energy:      -115.0475900
  entropy:           263.6479400
  heat_capacity:     122.7697589
  energy:            106.4166796

- temperature:       850.0000000
  free_energy:      -117.6913492
  entropy:           265.1011196
  heat_capacity:     122.8145610
  energy:            107.6446025

- temperature:       860.0000000
  free_energy:      -120.3495574
  entropy:           266.5378176
  heat_capacity:     122.8578427
  energy:            108.8729657

- temperature:       870.0000000
  free_energy:      -123.0220518
  entropy:           267.9583980
  heat_capacity:     122.8996718
  energy:            110.1017545

- temperature:       880.0000000
  free_energy:      -125.7086729
  entropy:           269.3632129
  heat_capacity:     122.9401123
  energy:            111.3309545

- temperature:       890.0000000
  free_energy:      -128.4092647
  entropy:           270.7526033
  heat_capacity:     122.9792244
  energy:            112.5605523

- temperature:       900.0000000
  free_energy:      -131.1236746
  entropy:           272.1268993
  heat_capacity:     123.0170657
  energy:            113.7905348

- temperature:       910.0000000
  free_energy:      -133.8517534
  entropy:           273.4864208
  heat_capacity:     123.0536901
  energy:            115.0208896

- temperature:       920.0000000
  free_energy:      -136.5933548
  entropy:           274.8314777
  heat_capacity:     123.0891492
  energy:            116.2516047

- temperature:       930.0000000
  free_energy:      -139.3483357
  entropy:           276.1623705
  heat_capacity:     123.1234915
  energy:            117.4826688

- temperature:       940.0000000
  free_energy:      -142.1165560
  entropy:           277.4793904
  heat_capacity:     123.1567634
  energy:            118.7140710

- temperature:       950.0000000
  free_energy:      -144.8978782
  entropy:           278.7828199
  heat_capacity:     123.1890086
  energy:            119.9458007

- temperature:       960.0000000
  free_energy:      -147.6921680
  entropy:           280.0729332
  heat_capacity:     123.2202687
  energy:            121.1778479

- temperature:       970.0000000
  free_energy:      -150.4992934
  entropy:           281.3499962
  heat_capacity:     123.2505834
  energy:            122.4102029

- temperature:       980.0000000
  free_energy:      -153.3191253
  entropy:           282.6142671
  heat_capacity:     123.2799901
  energy:            123.6428565

- temperature:       990.0000000
  free_energy:      -156.1515369
  entropy:           283.8659967
  heat_capacity:     123.3085247
  energy:            124.8757998

- temperature:      1000.0000000
  free_energy:      -158.9964042
  entropy:           285.1054284
  heat_capacity:     123.3362211
  energy:            126.1090242
