# Thermal properties / unit cell (natom)

unit:
  temperature:   K
  free_energy:   kJ/mol
  entropy:       J/K/mol
  heat_capacity: J/K/mol

natom: 5    
cutoff_frequency:    0.000
num_modes: 7680
num_integrated_modes: 7680

zero_point_energy:      29.1606002
high_T_entropy:        419.6570532

thermal_properties:
- temperature:         0.0000000
  free_energy:        29.1606002
  entropy:             0.0000000
  heat_capacity:       0.0000000
  energy:             29.1606002

- temperature:        10.0000000
  free_energy:        29.1605739
  entropy:             0.0159500
  heat_capacity:       0.0715011
  energy:             29.1607334

- temperature:        20.0000000
  free_energy:        29.1595827
  entropy:             0.2468549
  heat_capacity:       0.9300223
  energy:             29.1645198

- temperature:        30.0000000
  free_energy:        29.1535277
  entropy:             1.1057039
  heat_capacity:       3.9162602
  energy:             29.1866988

- temperature:        40.0000000
  free_energy:        29.1343706
  entropy:             2.8784791
  heat_capacity:       8.8696443
  energy:             29.2495098

- temperature:        50.0000000
  free_energy:        29.0932293
  entropy:             5.4661839
  heat_capacity:      14.5796912
  energy:             29.3665385

- temperature:        60.0000000
  free_energy:        29.0231238
  entropy:             8.6326607
  heat_capacity:      20.3016315
  energy:             29.5410834

- temperature:        70.0000000
  free_energy:        28.9193182
  entropy:            12.1789119
  heat_capacity:      25.8115810
  energy:             29.7718420

- temperature:        80.0000000
  free_energy:        28.7787233
  entropy:            15.9734855
  heat_capacity:      31.1086265
  energy:             30.0566022

- temperature:        90.0000000
  free_energy:        28.5992951
  entropy:            19.9350297
  heat_capacity:      36.2348078
  energy:             30.3934477

- temperature:       100.0000000
  free_energy:        28.3796407
  entropy:            24.0116863
  heat_capacity:      41.2133967
  energy:             30.7808093

- temperature:       110.0000000
  free_energy:        28.1187985
  entropy:            28.1674540
  heat_capacity:      46.0423124
  energy:             31.2172185

- temperature:       120.0000000
  free_energy:        27.8161202
  entropy:            32.3748201
  heat_capacity:      50.7039752
  energy:             31.7010986

- temperature:       130.0000000
  free_energy:        27.4712057
  entropy:            36.6112264
  heat_capacity:      55.1758669
  energy:             32.2306651

- temperature:       140.0000000
  free_energy:        27.0838630
  entropy:            40.8575106
  heat_capacity:      59.4375230
  energy:             32.8039145

- temperature:       150.0000000
  free_energy:        26.6540776
  entropy:            45.0972438
  heat_capacity:      63.4739726
  energy:             33.4186642

- temperature:       160.0000000
  free_energy:        26.1819869
  entropy:            49.3164212
  heat_capacity:      67.2767327
  energy:             34.0726143

- temperature:       170.0000000
  free_energy:        25.6678572
  entropy:            53.5032598
  heat_capacity:      70.8434248
  energy:             34.7634114

- temperature:       180.0000000
  free_energy:        25.1120622
  entropy:            57.6480129
  heat_capacity:      74.1767647
  energy:             35.4887045

- temperature:       190.0000000
  free_energy:        24.5150638
  entropy:            61.7427727
  heat_capacity:      77.2833730
  energy:             36.2461906

- temperature:       200.0000000
  free_energy:        23.8773945
  entropy:            65.7812643
  heat_capacity:      80.1726458
  energy:             37.0336473

- temperature:       210.0000000
  free_energy:        23.1996423
  entropy:            69.7586378
  heat_capacity:      82.8557874
  energy:             37.8489563

- temperature:       220.0000000
  free_energy:        22.4824376
  entropy:            73.6712686
  heat_capacity:      85.3450347
  energy:             38.6901167

- temperature:       230.0000000
  free_energy:        21.7264415
  entropy:            77.5165714
  heat_capacity:      87.6530654
  energy:             39.5552529

- temperature:       240.0000000
  free_energy:        20.9323364
  entropy:            81.2928328
  heat_capacity:      89.7925637
  energy:             40.4426163

- temperature:       250.0000000
  free_energy:        20.1008183
  entropy:            84.9990617
  heat_capacity:      91.7759165
  energy:             41.3505838

- temperature:       260.0000000
  free_energy:        19.2325900
  entropy:            88.6348608
  heat_capacity:      93.6150092
  energy:             42.2776538

- temperature:       270.0000000
  free_energy:        18.3283556
  entropy:            92.2003149
  heat_capacity:      95.3210990
  energy:             43.2224407

- temperature:       280.0000000
  free_energy:        17.3888166
  entropy:            95.6958967
  heat_capacity:      96.9047443
  energy:             44.1836677

- temperature:       290.0000000
  free_energy:        16.4146680
  entropy:            99.1223870
  heat_capacity:      98.3757753
  energy:             45.1601603

- temperature:       300.0000000
  free_energy:        15.4065958
  entropy:           102.4808081
  heat_capacity:      99.7432929
  energy:             46.1508383

- temperature:       310.0000000
  free_energy:        14.3652748
  entropy:           105.7723689
  heat_capacity:     101.0156862
  energy:             47.1547091

- temperature:       320.0000000
  free_energy:        13.2913668
  entropy:           108.9984183
  heat_capacity:     102.2006641
  energy:             48.1708607

- temperature:       330.0000000
  free_energy:        12.1855199
  entropy:           112.1604082
  heat_capacity:     103.3052930
  energy:             49.1984546

- temperature:       340.0000000
  free_energy:        11.0483671
  entropy:           115.2598623
  heat_capacity:     104.3360390
  energy:             50.2367203

- temperature:       350.0000000
  free_energy:         9.8805259
  entropy:           118.2983514
  heat_capacity:     105.2988119
  energy:             51.2849489

- temperature:       360.0000000
  free_energy:         8.6825980
  entropy:           121.2774723
  heat_capacity:     106.1990088
  energy:             52.3424880

- temperature:       370.0000000
  free_energy:         7.4551690
  entropy:           124.1988323
  heat_capacity:     107.0415559
  energy:             53.4087370

- temperature:       380.0000000
  free_energy:         6.1988085
  entropy:           127.0640355
  heat_capacity:     107.8309493
  energy:             54.4831420

- temperature:       390.0000000
  free_energy:         4.9140702
  entropy:           129.8746726
  heat_capacity:     108.5712925
  energy:             55.5651925

- temperature:       400.0000000
  free_energy:         3.6014917
  entropy:           132.6323129
  heat_capacity:     109.2663315
  energy:             56.6544169

- temperature:       410.0000000
  free_energy:         2.2615954
  entropy:           135.3384978
  heat_capacity:     109.9194874
  energy:             57.7503795

- temperature:       420.0000000
  free_energy:         0.8948883
  entropy:           137.9947362
  heat_capacity:     110.5338860
  energy:             58.8526775

- temperature:       430.0000000
  free_energy:        -0.4981377
  entropy:           140.6025008
  heat_capacity:     111.1123853
  energy:             59.9609376

- temperature:       440.0000000
  free_energy:        -1.9170050
  entropy:           143.1632255
  heat_capacity:     111.6575998
  energy:             61.0748142

- temperature:       450.0000000
  free_energy:        -3.3612501
  entropy:           145.6783039
  heat_capacity:     112.1719234
  energy:             62.1939867

- temperature:       460.0000000
  free_energy:        -4.8304234
  entropy:           148.1490880
  heat_capacity:     112.6575497
  energy:             63.3181571

- temperature:       470.0000000
  free_energy:        -6.3240886
  entropy:           150.5768878
  heat_capacity:     113.1164904
  energy:             64.4470487

- temperature:       480.0000000
  free_energy:        -7.8418221
  entropy:           152.9629713
  heat_capacity:     113.5505919
  energy:             65.5804041

- temperature:       490.0000000
  free_energy:        -9.3832130
  entropy:           155.3085642
  heat_capacity:     113.9615506
  energy:             66.7179834

- temperature:       500.0000000
  free_energy:       -10.9478624
  entropy:           157.6148511
  heat_capacity:     114.3509265
  energy:             67.8595632

- temperature:       510.0000000
  free_energy:       -12.5353828
  entropy:           159.8829758
  heat_capacity:     114.7201554
  energy:             69.0049348

- temperature:       520.0000000
  free_energy:       -14.1453984
  entropy:           162.1140421
  heat_capacity:     115.0705600
  energy:             70.1539036

- temperature:       530.0000000
  free_energy:       -15.7775437
  entropy:           164.3091152
  heat_capacity:     115.4033599
  energy:             71.3062873

- temperature:       540.0000000
  free_energy:       -17.4314641
  entropy:           166.4692221
  heat_capacity:     115.7196811
  energy:             72.4619158

- temperature:       550.0000000
  free_energy:       -19.1068149
  entropy:           168.5953535
  heat_capacity:     116.0205637
  energy:             73.6206295

- temperature:       560.0000000
  free_energy:       -20.8032611
  entropy:           170.6884643
  heat_capacity:     116.3069695
  energy:             74.7822789

- temperature:       570.0000000
  free_energy:       -22.5204772
  entropy:           172.7494751
  heat_capacity:     116.5797888
  energy:             75.9467236

- temperature:       580.0000000
  free_energy:       -24.2581466
  entropy:           174.7792736
  heat_capacity:     116.8398463
  energy:             77.1138321

- temperature:       590.0000000
  free_energy:       -26.0159615
  entropy:           176.7787153
  heat_capacity:     117.0879069
  energy:             78.2834806

- temperature:       600.0000000
  free_energy:       -27.7936225
  entropy:           178.7486251
  heat_capacity:     117.3246804
  energy:             79.4555526

- temperature:       610.0000000
  free_energy:       -29.5908382
  entropy:           180.6897983
  heat_capacity:     117.5508261
  energy:             80.6299388

- temperature:       620.0000000
  free_energy:       -31.4073252
  entropy:           182.6030015
  heat_capacity:     117.7669572
  energy:             81.8065358

- temperature:       630.0000000
  free_energy:       -33.2428075
  entropy:           184.4889744
  heat_capacity:     117.9736442
  energy:             82.9852464

- temperature:       640.0000000
  free_energy:       -35.0970163
  entropy:           186.3484301
  heat_capacity:     118.1714185
  energy:             84.1659790

- temperature:       650.0000000
  free_energy:       -36.9696900
  entropy:           188.1820565
  heat_capacity:     118.3607752
  energy:             85.3486467

- temperature:       660.0000000
  free_energy:       -38.8605735
  entropy:           189.9905174
  heat_capacity:     118.5421766
  energy:             86.5331679

- temperature:       670.0000000
  free_energy:       -40.7694186
  entropy:           191.7744534
  heat_capacity:     118.7160540
  energy:             87.7194652

- temperature:       680.0000000
  free_energy:       -42.6959829
  entropy:           193.5344827
  heat_capacity:     118.8828105
  energy:             88.9074653

- temperature:       690.0000000
  free_energy:       -44.6400305
  entropy:           195.2712021
  heat_capacity:     119.0428232
  energy:             90.0970989

- temperature:       700.0000000
  free_energy:       -46.6013312
  entropy:           196.9851880
  heat_capacity:     119.1964448
  energy:             91.2883005

- temperature:       710.0000000
  free_energy:       -48.5796604
  entropy:           198.6769972
  heat_capacity:     119.3440057
  energy:             92.4810076

- temperature:       720.0000000
  free_energy:       -50.5747990
  entropy:           200.3471672
  heat_capacity:     119.4858158
  energy:             93.6751614

- temperature:       730.0000000
  free_energy:       -52.5865333
  entropy:           201.9962179
  heat_capacity:     119.6221654
  energy:             94.8707057

- temperature:       740.0000000
  free_energy:       -54.6146546
  entropy:           203.6246514
  heat_capacity:     119.7533272
  energy:             96.0675874

- temperature:       750.0000000
  free_energy:       -56.6589592
  entropy:           205.2329534
  heat_capacity:     119.8795575
  energy:             97.2657558

- temperature:       760.0000000
  free_energy:       -58.7192482
  entropy:           206.8215935
  heat_capacity:     120.0010969
  energy:             98.4651629

- temperature:       770.0000000
  free_energy:       -60.7953271
  entropy:           208.3910260
  heat_capacity:     120.1181718
  energy:             99.6657629

- temperature:       780.0000000
  free_energy:       -62.8870061
  entropy:           209.9416902
  heat_capacity:     120.2309954
  energy:            100.8675122

- temperature:       790.0000000
  free_energy:       -64.9940997
  entropy:           211.4740115
  heat_capacity:     120.3397684
  energy:            102.0703693

- temperature:       800.0000000
  free_energy:       -67.1164266
  entropy:           212.9884016
  heat_capacity:     120.4446801
  energy:            103.2742947

- temperature:       810.0000000
  free_energy:       -69.2538093
  entropy:           214.4852592
  heat_capacity:     120.5459088
  energy:            104.4792506

- temperature:       820.0000000
  free_energy:       -71.4060746
  entropy:           215.9649705
  heat_capacity:     120.6436229
  energy:            105.6852012

- temperature:       830.0000000
  free_energy:       -73.5730528
  entropy:           217.4279093
  heat_capacity:     120.7379813
  energy:            106.8921119

- temperature:       840.0000000
  free_energy:       -75.7545781
  entropy:           218.8744383
  heat_capacity:     120.8291343
  energy:            108.0999501

- temperature:       850.0000000
  free_energy:       -77.9504881
  entropy:           220.3049088
  heat_capacity:     120.9172237
  energy:            109.3086844

- temperature:       860.0000000
  free_energy:       -80.1606239
  entropy:           221.7196613
  heat_capacity:     121.0023839
  energy:            110.5182848

- temperature:       870.0000000
  free_energy:       -82.3848300
  entropy:           223.1190261
  heat_capacity:     121.0847420
  energy:            111.7287227

- temperature:       880.0000000
  free_energy:       -84.6229542
  entropy:           224.5033237
  heat_capacity:     121.1644183
  energy:            112.9399707

- temperature:       890.0000000
  free_energy:       -86.8748473
  entropy:           225.8728650
  heat_capacity:     121.2415268
  energy:            114.1520025

- temperature:       900.0000000
  free_energy:       -89.1403633
  entropy:           227.2279515
  heat_capacity:     121.3161756
  energy:            115.3647930

- temperature:       910.0000000
  free_energy:       -91.4193591
  entropy:           228.5688762
  heat_capacity:     121.3884673
  energy:            116.5783182

- temperature:       920.0000000
  free_energy:       -93.7116946
  entropy:           229.8959233
  heat_capacity:     121.4584991
  energy:            117.7925549

- temperature:       930.0000000
  free_energy:       -96.0172323
  entropy:           231.2093690
  heat_capacity:     121.5263633
  energy:            119.0074809

- temperature:       940.0000000
  free_energy:       -98.3358375
  entropy:           232.5094816
  heat_capacity:     121.5921478
  energy:            120.2230752

- temperature:       950.0000000
  free_energy:      -100.6673783
  entropy:           233.7965216
  heat_capacity:     121.6559358
  energy:            121.4393172

- temperature:       960.0000000
  free_energy:      -103.0117252
  entropy:           235.0707424
  heat_capacity:     121.7178067
  energy:            122.6561875

- temperature:       970.0000000
  free_energy:      -105.3687512
  entropy:           236.3323902
  heat_capacity:     121.7778359
  energy:            123.8736672

- temperature:       980.0000000
  free_energy:      -107.7383319
  entropy:           237.5817043
  heat_capacity:     121.8360952
  energy:            125.0917383

- temperature:       990.0000000
  free_energy:      -110.1203450
  entropy:           238.8189176
  heat_capacity:     121.8926529
  energy:            126.3103835

- temperature:      1000.0000000
  free_energy:      -112.5146707
  entropy:           240.0442566
  heat_capacity:     121.9475741
  energy:            127.5295859
