# Thermal properties / unit cell (natom)

unit:
  temperature:   K
  free_energy:   kJ/mol
  entropy:       J/K/mol
  heat_capacity: J/K/mol

natom: 20   
cutoff_frequency:    0.000
num_modes: 30720
num_integrated_modes: 30720

zero_point_energy:     107.4896922
high_T_entropy:       1723.2860620

thermal_properties:
- temperature:         0.0000000
  free_energy:       107.4896922
  entropy:             0.0000000
  heat_capacity:       0.0000000
  energy:            107.4896922

- temperature:        10.0000000
  free_energy:       107.4894466
  entropy:             0.1145607
  heat_capacity:       0.4262266
  energy:            107.4905922

- temperature:        20.0000000
  free_energy:       107.4820449
  entropy:             1.9585116
  heat_capacity:       7.8204525
  energy:            107.5212151

- temperature:        30.0000000
  free_energy:       107.4346577
  entropy:             8.3096265
  heat_capacity:      25.8405803
  energy:            107.6839465

- temperature:        40.0000000
  free_energy:       107.3025034
  entropy:            18.6545661
  heat_capacity:      47.2966796
  energy:            108.0486861

- temperature:        50.0000000
  free_energy:       107.0530824
  entropy:            31.5671865
  heat_capacity:      69.2932155
  energy:            108.6314417

- temperature:        60.0000000
  free_energy:       106.6655950
  entropy:            46.1621805
  heat_capacity:      91.5250418
  energy:            109.4353258

- temperature:        70.0000000
  free_energy:       106.1258663
  entropy:            61.9545235
  heat_capacity:     113.9723831
  energy:            110.4626830

- temperature:        80.0000000
  free_energy:       105.4235278
  entropy:            78.6422789
  heat_capacity:     136.4570974
  energy:            111.7149101

- temperature:        90.0000000
  free_energy:       104.5507837
  entropy:            96.0023630
  heat_capacity:     158.6929665
  energy:            113.1909963

- temperature:       100.0000000
  free_energy:       103.5018555
  entropy:           113.8507941
  heat_capacity:     180.3800683
  energy:            114.8869349

- temperature:       110.0000000
  free_energy:       102.2726695
  entropy:           132.0294281
  heat_capacity:     201.2621244
  energy:            116.7959066

- temperature:       120.0000000
  free_energy:       100.8606230
  entropy:           150.4019115
  heat_capacity:     221.1489691
  energy:            118.9088524

- temperature:       130.0000000
  free_energy:        99.2643742
  entropy:           168.8521462
  heat_capacity:     239.9179577
  energy:            121.2151532

- temperature:       140.0000000
  free_energy:        97.4836466
  entropy:           187.2830058
  heat_capacity:     257.5052616
  energy:            123.7032674

- temperature:       150.0000000
  free_energy:        95.5190462
  entropy:           205.6147482
  heat_capacity:     273.8937070
  energy:            126.3612585

- temperature:       160.0000000
  free_energy:        93.3718976
  entropy:           223.7831433
  heat_capacity:     289.1006463
  energy:            129.1772005

- temperature:       170.0000000
  free_energy:        91.0440982
  entropy:           241.7374760
  heat_capacity:     303.1674079
  energy:            132.1394691

- temperature:       180.0000000
  free_energy:        88.5379933
  entropy:           259.4385734
  heat_capacity:     316.1508000
  energy:            135.2369365

- temperature:       190.0000000
  free_energy:        85.8562700
  entropy:           276.8569619
  heat_capacity:     328.1166183
  energy:            138.4590927

- temperature:       200.0000000
  free_energy:        83.0018686
  entropy:           293.9712085
  heat_capacity:     339.1348845
  energy:            141.7961103

- temperature:       210.0000000
  free_energy:        79.9779097
  entropy:           310.7664700
  heat_capacity:     349.2764829
  energy:            145.2388684

- temperature:       220.0000000
  free_energy:        76.7876346
  entropy:           327.2332499
  heat_capacity:     358.6108777
  energy:            148.7789496

- temperature:       230.0000000
  free_energy:        73.4343573
  entropy:           343.3663488
  heat_capacity:     367.2046371
  energy:            152.4086176

- temperature:       240.0000000
  free_energy:        69.9214261
  entropy:           359.1639883
  heat_capacity:     375.1205480
  energy:            156.1207833

- temperature:       250.0000000
  free_energy:        66.2521929
  entropy:           374.6270869
  heat_capacity:     382.4171479
  energy:            159.9089646

- temperature:       260.0000000
  free_energy:        62.4299896
  entropy:           389.7586659
  heat_capacity:     389.1485477
  energy:            163.7672427

- temperature:       270.0000000
  free_energy:        58.4581093
  entropy:           404.5633644
  heat_capacity:     395.3644495
  energy:            167.6902177

- temperature:       280.0000000
  free_energy:        54.3397925
  entropy:           419.0470458
  heat_capacity:     401.1102912
  energy:            171.6729653

- temperature:       290.0000000
  free_energy:        50.0782160
  entropy:           433.2164797
  heat_capacity:     406.4274689
  energy:            175.7109951

- temperature:       300.0000000
  free_energy:        45.6764857
  entropy:           447.0790864
  heat_capacity:     411.3536021
  energy:            179.8002116

- temperature:       310.0000000
  free_energy:        41.1376308
  entropy:           460.6427321
  heat_capacity:     415.9228181
  energy:            183.9368778

- temperature:       320.0000000
  free_energy:        36.4646004
  entropy:           473.9155663
  heat_capacity:     420.1660410
  energy:            188.1175816

- temperature:       330.0000000
  free_energy:        31.6602612
  entropy:           486.9058921
  heat_capacity:     424.1112723
  energy:            192.3392056

- temperature:       340.0000000
  free_energy:        26.7273964
  entropy:           499.6220650
  heat_capacity:     427.7838599
  energy:            196.5988985

- temperature:       350.0000000
  free_energy:        21.6687060
  entropy:           512.0724135
  heat_capacity:     431.2067489
  energy:            200.8940507

- temperature:       360.0000000
  free_energy:        16.4868068
  entropy:           524.2651775
  heat_capacity:     434.4007143
  energy:            205.2222707

- temperature:       370.0000000
  free_energy:        11.1842340
  entropy:           536.2084617
  heat_capacity:     437.3845745
  energy:            209.5813648

- temperature:       380.0000000
  free_energy:         5.7634427
  entropy:           547.9102004
  heat_capacity:     440.1753852
  energy:            213.9693188

- temperature:       390.0000000
  free_energy:         0.2268093
  entropy:           559.3781319
  heat_capacity:     442.7886157
  energy:            218.3842808

- temperature:       400.0000000
  free_energy:        -5.4233657
  entropy:           570.6197797
  heat_capacity:     445.2383079
  energy:            222.8245462

- temperature:       410.0000000
  free_energy:       -11.1848563
  entropy:           581.6424409
  heat_capacity:     447.5372190
  energy:            227.2885444

- temperature:       420.0000000
  free_energy:       -17.0555082
  entropy:           592.4531783
  heat_capacity:     449.6969506
  energy:            231.7748267

- temperature:       430.0000000
  free_energy:       -23.0332363
  entropy:           603.0588165
  heat_capacity:     451.7280634
  energy:            236.2820548

- temperature:       440.0000000
  free_energy:       -29.1160228
  entropy:           613.4659414
  heat_capacity:     453.6401812
  energy:            240.8089914

- temperature:       450.0000000
  free_energy:       -35.3019146
  entropy:           623.6809016
  heat_capacity:     455.4420827
  energy:            245.3544912

- temperature:       460.0000000
  free_energy:       -41.5890207
  entropy:           633.7098113
  heat_capacity:     457.1417849
  energy:            249.9174925

- temperature:       470.0000000
  free_energy:       -47.9755103
  entropy:           643.5585552
  heat_capacity:     458.7466168
  energy:            254.4970107

- temperature:       480.0000000
  free_energy:       -54.4596101
  entropy:           653.2327941
  heat_capacity:     460.2632862
  energy:            259.0921310

- temperature:       490.0000000
  free_energy:       -61.0396026
  entropy:           662.7379708
  heat_capacity:     461.6979390
  energy:            263.7020031

- temperature:       500.0000000
  free_energy:       -67.7138235
  entropy:           672.0793175
  heat_capacity:     463.0562124
  energy:            268.3258353

- temperature:       510.0000000
  free_energy:       -74.4806597
  entropy:           681.2618621
  heat_capacity:     464.3432827
  energy:            272.9628900

- temperature:       520.0000000
  free_energy:       -81.3385475
  entropy:           690.2904365
  heat_capacity:     465.5639084
  energy:            277.6124795

- temperature:       530.0000000
  free_energy:       -88.2859706
  entropy:           699.1696830
  heat_capacity:     466.7224682
  energy:            282.2739613

- temperature:       540.0000000
  free_energy:       -95.3214583
  entropy:           707.9040624
  heat_capacity:     467.8229962
  energy:            286.9467354

- temperature:       550.0000000
  free_energy:      -102.4435833
  entropy:           716.4978611
  heat_capacity:     468.8692123
  energy:            291.6302403

- temperature:       560.0000000
  free_energy:      -109.6509607
  entropy:           724.9551978
  heat_capacity:     469.8645509
  energy:            296.3239501

- temperature:       570.0000000
  free_energy:      -116.9422456
  entropy:           733.2800314
  heat_capacity:     470.8121855
  energy:            301.0273723

- temperature:       580.0000000
  free_energy:      -124.3161323
  entropy:           741.4761671
  heat_capacity:     471.7150518
  energy:            305.7400446

- temperature:       590.0000000
  free_energy:      -131.7713522
  entropy:           749.5472633
  heat_capacity:     472.5758684
  energy:            310.4615332

- temperature:       600.0000000
  free_energy:      -139.3066725
  entropy:           757.4968379
  heat_capacity:     473.3971547
  energy:            315.1914302

- temperature:       610.0000000
  free_energy:      -146.9208951
  entropy:           765.3282745
  heat_capacity:     474.1812484
  energy:            319.9293523

- temperature:       620.0000000
  free_energy:      -154.6128551
  entropy:           773.0448283
  heat_capacity:     474.9303202
  energy:            324.6749385

- temperature:       630.0000000
  free_energy:      -162.3814192
  entropy:           780.6496317
  heat_capacity:     475.6463880
  energy:            329.4278487

- temperature:       640.0000000
  free_energy:      -170.2254853
  entropy:           788.1456997
  heat_capacity:     476.3313289
  energy:            334.1877625

- temperature:       650.0000000
  free_energy:      -178.1439805
  entropy:           795.5359352
  heat_capacity:     476.9868909
  energy:            338.9543774

- temperature:       660.0000000
  free_energy:      -186.1358605
  entropy:           802.8231339
  heat_capacity:     477.6147034
  energy:            343.7274078

- temperature:       670.0000000
  free_energy:      -194.2001087
  entropy:           810.0099891
  heat_capacity:     478.2162858
  energy:            348.5065840

- temperature:       680.0000000
  free_energy:      -202.3357345
  entropy:           817.0990961
  heat_capacity:     478.7930570
  energy:            353.2916509

- temperature:       690.0000000
  free_energy:      -210.5417731
  entropy:           824.0929565
  heat_capacity:     479.3463427
  energy:            358.0823669

- temperature:       700.0000000
  free_energy:      -218.8172842
  entropy:           830.9939825
  heat_capacity:     479.8773824
  energy:            362.8785036

- temperature:       710.0000000
  free_energy:      -227.1613511
  entropy:           837.8045005
  heat_capacity:     480.3873363
  energy:            367.6798443

- temperature:       720.0000000
  free_energy:      -235.5730800
  entropy:           844.5267550
  heat_capacity:     480.8772910
  energy:            372.4861836

- temperature:       730.0000000
  free_energy:      -244.0515992
  entropy:           851.1629124
  heat_capacity:     481.3482648
  energy:            377.2973268

- temperature:       740.0000000
  free_energy:      -252.5960582
  entropy:           857.7150636
  heat_capacity:     481.8012131
  energy:            382.1130889

- temperature:       750.0000000
  free_energy:      -261.2056272
  entropy:           864.1852283
  heat_capacity:     482.2370326
  energy:            386.9332940

- temperature:       760.0000000
  free_energy:      -269.8794960
  entropy:           870.5753569
  heat_capacity:     482.6565657
  energy:            391.7577752

- temperature:       770.0000000
  free_energy:      -278.6168738
  entropy:           876.8873344
  heat_capacity:     483.0606043
  energy:            396.5863737

- temperature:       780.0000000
  free_energy:      -287.4169883
  entropy:           883.1229826
  heat_capacity:     483.4498933
  energy:            401.4189382

- temperature:       790.0000000
  free_energy:      -296.2790849
  entropy:           889.2840628
  heat_capacity:     483.8251338
  energy:            406.2553247

- temperature:       800.0000000
  free_energy:      -305.2024267
  entropy:           895.3722786
  heat_capacity:     484.1869865
  energy:            411.0953962

- temperature:       810.0000000
  free_energy:      -314.1862931
  entropy:           901.3892778
  heat_capacity:     484.5360738
  energy:            415.9390219

- temperature:       820.0000000
  free_energy:      -323.2299801
  entropy:           907.3366552
  heat_capacity:     484.8729830
  energy:            420.7860771

- temperature:       830.0000000
  free_energy:      -332.3327993
  entropy:           913.2159544
  heat_capacity:     485.1982683
  energy:            425.6364428

- temperature:       840.0000000
  free_energy:      -341.4940773
  entropy:           919.0286699
  heat_capacity:     485.5124529
  energy:            430.4900055

- temperature:       850.0000000
  free_energy:      -350.7131556
  entropy:           924.7762495
  heat_capacity:     485.8160313
  energy:            435.3466565

- temperature:       860.0000000
  free_energy:      -359.9893898
  entropy:           930.4600955
  heat_capacity:     486.1094712
  energy:            440.2062923

- temperature:       870.0000000
  free_energy:      -369.3221496
  entropy:           936.0815669
  heat_capacity:     486.3932148
  energy:            445.0688136

- temperature:       880.0000000
  free_energy:      -378.7108177
  entropy:           941.6419811
  heat_capacity:     486.6676808
  energy:            449.9341257

- temperature:       890.0000000
  free_energy:      -388.1547899
  entropy:           947.1426153
  heat_capacity:     486.9332657
  energy:            454.8021376

- temperature:       900.0000000
  free_energy:      -397.6534748
  entropy:           952.5847083
  heat_capacity:     487.1903453
  energy:            459.6727626

- temperature:       910.0000000
  free_energy:      -407.2062930
  entropy:           957.9694619
  heat_capacity:     487.4392759
  energy:            464.5459174

- temperature:       920.0000000
  free_energy:      -416.8126768
  entropy:           963.2980423
  heat_capacity:     487.6803953
  energy:            469.4215221

- temperature:       930.0000000
  free_energy:      -426.4720704
  entropy:           968.5715814
  heat_capacity:     487.9140245
  energy:            474.2995003

- temperature:       940.0000000
  free_energy:      -436.1839287
  entropy:           973.7911780
  heat_capacity:     488.1404680
  energy:            479.1797787

- temperature:       950.0000000
  free_energy:      -445.9477177
  entropy:           978.9578993
  heat_capacity:     488.3600151
  energy:            484.0622867

- temperature:       960.0000000
  free_energy:      -455.7629139
  entropy:           984.0727820
  heat_capacity:     488.5729411
  energy:            488.9469569

- temperature:       970.0000000
  free_energy:      -465.6290039
  entropy:           989.1368332
  heat_capacity:     488.7795074
  energy:            493.8337243

- temperature:       980.0000000
  free_energy:      -475.5454843
  entropy:           994.1510316
  heat_capacity:     488.9799631
  energy:            498.7225267

- temperature:       990.0000000
  free_energy:      -485.5118615
  entropy:           999.1163288
  heat_capacity:     489.1745451
  energy:            503.6133040

- temperature:      1000.0000000
  free_energy:      -495.5276510
  entropy:          1004.0336497
  heat_capacity:     489.3634790
  energy:            508.5059987
