# Thermal properties / unit cell (natom)

unit:
  temperature:   K
  free_energy:   kJ/mol
  entropy:       J/K/mol
  heat_capacity: J/K/mol

natom: 5    
cutoff_frequency:    0.000
num_modes: 7680
num_integrated_modes: 7680

zero_point_energy:      14.0750994
high_T_entropy:        515.6849826

thermal_properties:
- temperature:         0.0000000
  free_energy:        14.0750994
  entropy:             0.0000000
  heat_capacity:       0.0000000
  energy:             14.0750994

- temperature:        10.0000000
  free_energy:        14.0744680
  entropy:             0.3074316
  heat_capacity:       1.1835302
  energy:             14.0775423

- temperature:        20.0000000
  free_energy:        14.0588807
  entropy:             3.4955861
  heat_capacity:      10.3670482
  energy:             14.1287924

- temperature:        30.0000000
  free_energy:        13.9928918
  entropy:            10.1401078
  heat_capacity:      23.4692362
  energy:             14.2970950

- temperature:        40.0000000
  free_energy:        13.8497812
  entropy:            18.6965336
  heat_capacity:      36.4763645
  energy:             14.5976425

- temperature:        50.0000000
  free_energy:        13.6161368
  entropy:            28.1144006
  heat_capacity:      48.0855766
  energy:             15.0218569

- temperature:        60.0000000
  free_energy:        13.2866930
  entropy:            37.7813757
  heat_capacity:      57.9758661
  energy:             15.5535755

- temperature:        70.0000000
  free_energy:        12.8608176
  entropy:            47.3612087
  heat_capacity:      66.2878248
  energy:             16.1761022

- temperature:        80.0000000
  free_energy:        12.3403397
  entropy:            56.6826966
  heat_capacity:      73.2858529
  energy:             16.8749555

- temperature:        90.0000000
  free_energy:        11.7282948
  entropy:            65.6663919
  heat_capacity:      79.2173740
  energy:             17.6382701

- temperature:       100.0000000
  free_energy:        11.0282425
  entropy:            74.2817131
  heat_capacity:      84.2806506
  energy:             18.4564138

- temperature:       110.0000000
  free_energy:        10.2439067
  entropy:            82.5236153
  heat_capacity:      88.6291907
  energy:             19.3215044

- temperature:       120.0000000
  free_energy:         9.3789885
  entropy:            90.4002393
  heat_capacity:      92.3828032
  energy:             20.2270172

- temperature:       130.0000000
  free_energy:         8.4370706
  entropy:            97.9263591
  heat_capacity:      95.6368721
  energy:             21.1674973

- temperature:       140.0000000
  free_energy:         7.4215702
  entropy:           105.1198485
  heat_capacity:      98.4687914
  energy:             22.1383490

- temperature:       150.0000000
  free_energy:         6.3357189
  entropy:           111.9997366
  heat_capacity:     100.9422588
  energy:             23.1356794

- temperature:       160.0000000
  free_energy:         5.1825571
  entropy:           118.5851227
  heat_capacity:     103.1102038
  energy:             24.1561767

- temperature:       170.0000000
  free_energy:         3.9649362
  entropy:           124.8945719
  heat_capacity:     105.0168832
  energy:             25.1970134

- temperature:       180.0000000
  free_energy:         2.6855263
  entropy:           130.9457872
  heat_capacity:     106.6994570
  energy:             26.2557680

- temperature:       190.0000000
  free_energy:         1.3468255
  entropy:           136.7554468
  heat_capacity:     108.1892221
  energy:             27.3303604

- temperature:       200.0000000
  free_energy:        -0.0488295
  entropy:           142.3391391
  heat_capacity:     109.5126050
  energy:             28.4189983

- temperature:       210.0000000
  free_energy:        -1.4992525
  entropy:           147.7113586
  heat_capacity:     110.6919735
  energy:             29.5201328

- temperature:       220.0000000
  free_energy:        -3.0023967
  entropy:           152.8855362
  heat_capacity:     111.7463051
  energy:             30.6324213

- temperature:       230.0000000
  free_energy:        -4.5563446
  entropy:           157.8740903
  heat_capacity:     112.6917411
  energy:             31.7546962

- temperature:       240.0000000
  free_energy:        -6.1592981
  entropy:           162.6884887
  heat_capacity:     113.5420463
  energy:             32.8859392

- temperature:       250.0000000
  free_energy:        -7.8095692
  entropy:           167.3393145
  heat_capacity:     114.3089903
  energy:             34.0252594

- temperature:       260.0000000
  free_energy:        -9.5055717
  entropy:           171.8363335
  heat_capacity:     115.0026648
  energy:             35.1718750

- temperature:       270.0000000
  free_energy:       -11.2458133
  entropy:           176.1885587
  heat_capacity:     115.6317476
  energy:             36.3250976

- temperature:       280.0000000
  free_energy:       -13.0288881
  entropy:           180.4043134
  heat_capacity:     116.2037218
  energy:             37.4843197

- temperature:       290.0000000
  free_energy:       -14.8534704
  entropy:           184.4912885
  heat_capacity:     116.7250592
  energy:             38.6490033

- temperature:       300.0000000
  free_energy:       -16.7183084
  entropy:           188.4565973
  heat_capacity:     117.2013729
  energy:             39.8186708

- temperature:       310.0000000
  free_energy:       -18.6222188
  entropy:           192.3068251
  heat_capacity:     117.6375453
  energy:             40.9928970

- temperature:       320.0000000
  free_energy:       -20.5640816
  entropy:           196.0480745
  heat_capacity:     118.0378354
  energy:             42.1713022

- temperature:       330.0000000
  free_energy:       -22.5428359
  entropy:           199.6860076
  heat_capacity:     118.4059684
  energy:             43.3535466

- temperature:       340.0000000
  free_energy:       -24.5574750
  entropy:           203.2258832
  heat_capacity:     118.7452117
  energy:             44.5393253

- temperature:       350.0000000
  free_energy:       -26.6070430
  entropy:           206.6725920
  heat_capacity:     119.0584387
  energy:             45.7283641

- temperature:       360.0000000
  free_energy:       -28.6906315
  entropy:           210.0306870
  heat_capacity:     119.3481832
  energy:             46.9204158

- temperature:       370.0000000
  free_energy:       -30.8073756
  entropy:           213.3044125
  heat_capacity:     119.6166848
  energy:             48.1152570

- temperature:       380.0000000
  free_energy:       -32.9564517
  entropy:           216.4977292
  heat_capacity:     119.8659283
  energy:             49.3126854

- temperature:       390.0000000
  free_energy:       -35.1370745
  entropy:           219.6143380
  heat_capacity:     120.0976766
  energy:             50.5125173

- temperature:       400.0000000
  free_energy:       -37.3484944
  entropy:           222.6577005
  heat_capacity:     120.3134996
  energy:             51.7145858

- temperature:       410.0000000
  free_energy:       -39.5899952
  entropy:           225.6310587
  heat_capacity:     120.5147980
  energy:             52.9187389

- temperature:       420.0000000
  free_energy:       -41.8608923
  entropy:           228.5374522
  heat_capacity:     120.7028249
  energy:             54.1248376

- temperature:       430.0000000
  free_energy:       -44.1605305
  entropy:           231.3797336
  heat_capacity:     120.8787030
  energy:             55.3327549

- temperature:       440.0000000
  free_energy:       -46.4882823
  entropy:           234.1605836
  heat_capacity:     121.0434409
  energy:             56.5423745

- temperature:       450.0000000
  free_energy:       -48.8435459
  entropy:           236.8825233
  heat_capacity:     121.1979463
  energy:             57.7535896

- temperature:       460.0000000
  free_energy:       -51.2257443
  entropy:           239.5479268
  heat_capacity:     121.3430374
  energy:             58.9663021

- temperature:       470.0000000
  free_energy:       -53.6343234
  entropy:           242.1590317
  heat_capacity:     121.4794538
  energy:             60.1804215

- temperature:       480.0000000
  free_energy:       -56.0687510
  entropy:           244.7179488
  heat_capacity:     121.6078644
  energy:             61.3958645

- temperature:       490.0000000
  free_energy:       -58.5285151
  entropy:           247.2266718
  heat_capacity:     121.7288759
  energy:             62.6125541

- temperature:       500.0000000
  free_energy:       -61.0131234
  entropy:           249.6870851
  heat_capacity:     121.8430394
  energy:             63.8304192

- temperature:       510.0000000
  free_energy:       -63.5221017
  entropy:           252.1009715
  heat_capacity:     121.9508561
  energy:             65.0493937

- temperature:       520.0000000
  free_energy:       -66.0549934
  entropy:           254.4700193
  heat_capacity:     122.0527826
  energy:             66.2694167

- temperature:       530.0000000
  free_energy:       -68.6113580
  entropy:           256.7958285
  heat_capacity:     122.1492358
  energy:             67.4904311

- temperature:       540.0000000
  free_energy:       -71.1907709
  entropy:           259.0799172
  heat_capacity:     122.2405967
  energy:             68.7123844

- temperature:       550.0000000
  free_energy:       -73.7928221
  entropy:           261.3237261
  heat_capacity:     122.3272141
  energy:             69.9352273

- temperature:       560.0000000
  free_energy:       -76.4171157
  entropy:           263.5286243
  heat_capacity:     122.4094076
  energy:             71.1589139

- temperature:       570.0000000
  free_energy:       -79.0632692
  entropy:           265.6959138
  heat_capacity:     122.4874706
  energy:             72.3834017

- temperature:       580.0000000
  free_energy:       -81.7309127
  entropy:           267.8268332
  heat_capacity:     122.5616729
  energy:             73.6086505

- temperature:       590.0000000
  free_energy:       -84.4196886
  entropy:           269.9225621
  heat_capacity:     122.6322628
  energy:             74.8346231

- temperature:       600.0000000
  free_energy:       -87.1292504
  entropy:           271.9842248
  heat_capacity:     122.6994691
  energy:             76.0612845

- temperature:       610.0000000
  free_energy:       -89.8592631
  entropy:           274.0128934
  heat_capacity:     122.7635029
  energy:             77.2886019

- temperature:       620.0000000
  free_energy:       -92.6094017
  entropy:           276.0095909
  heat_capacity:     122.8245592
  energy:             78.5165446

- temperature:       630.0000000
  free_energy:       -95.3793516
  entropy:           277.9752942
  heat_capacity:     122.8828184
  energy:             79.7450837

- temperature:       640.0000000
  free_energy:       -98.1688074
  entropy:           279.9109369
  heat_capacity:     122.9384475
  energy:             80.9741922

- temperature:       650.0000000
  free_energy:      -100.9774731
  entropy:           281.8174116
  heat_capacity:     122.9916014
  energy:             82.2038444

- temperature:       660.0000000
  free_energy:      -103.8050613
  entropy:           283.6955723
  heat_capacity:     123.0424238
  energy:             83.4340165

- temperature:       670.0000000
  free_energy:      -106.6512929
  entropy:           285.5462366
  heat_capacity:     123.0910482
  energy:             84.6646856

- temperature:       680.0000000
  free_energy:      -109.5158970
  entropy:           287.3701875
  heat_capacity:     123.1375986
  energy:             85.8958305

- temperature:       690.0000000
  free_energy:      -112.3986101
  entropy:           289.1681756
  heat_capacity:     123.1821907
  energy:             87.1274310

- temperature:       700.0000000
  free_energy:      -115.2991763
  entropy:           290.9409207
  heat_capacity:     123.2249321
  energy:             88.3594682

- temperature:       710.0000000
  free_energy:      -118.2173467
  entropy:           292.6891134
  heat_capacity:     123.2659232
  energy:             89.5919239

- temperature:       720.0000000
  free_energy:      -121.1528790
  entropy:           294.4134168
  heat_capacity:     123.3052577
  energy:             90.8247811

- temperature:       730.0000000
  free_energy:      -124.1055375
  entropy:           296.1144675
  heat_capacity:     123.3430232
  energy:             92.0580238

- temperature:       740.0000000
  free_energy:      -127.0750929
  entropy:           297.7928777
  heat_capacity:     123.3793016
  energy:             93.2916366

- temperature:       750.0000000
  free_energy:      -130.0613216
  entropy:           299.4492356
  heat_capacity:     123.4141696
  energy:             94.5256051

- temperature:       760.0000000
  free_energy:      -133.0640060
  entropy:           301.0841072
  heat_capacity:     123.4476989
  energy:             95.7599155

- temperature:       770.0000000
  free_energy:      -136.0829339
  entropy:           302.6980374
  heat_capacity:     123.4799569
  energy:             96.9945548

- temperature:       780.0000000
  free_energy:      -139.1178987
  entropy:           304.2915504
  heat_capacity:     123.5110067
  energy:             98.2295106

- temperature:       790.0000000
  free_energy:      -142.1686986
  entropy:           305.8651515
  heat_capacity:     123.5409076
  energy:             99.4647712

- temperature:       800.0000000
  free_energy:      -145.2351369
  entropy:           307.4193276
  heat_capacity:     123.5697153
  energy:            100.7003252

- temperature:       810.0000000
  free_energy:      -148.3170219
  entropy:           308.9545480
  heat_capacity:     123.5974823
  energy:            101.9361620

- temperature:       820.0000000
  free_energy:      -151.4141662
  entropy:           310.4712655
  heat_capacity:     123.6242578
  energy:            103.1722715

- temperature:       830.0000000
  free_energy:      -154.5263870
  entropy:           311.9699169
  heat_capacity:     123.6500883
  energy:            104.4086440

- temperature:       840.0000000
  free_energy:      -157.6535057
  entropy:           313.4509238
  heat_capacity:     123.6750176
  energy:            105.6452703

- temperature:       850.0000000
  free_energy:      -160.7953480
  entropy:           314.9146935
  heat_capacity:     123.6990869
  energy:            106.8821415

- temperature:       860.0000000
  free_energy:      -163.9517435
  entropy:           316.3616195
  heat_capacity:     123.7223351
  energy:            108.1192493

- temperature:       870.0000000
  free_energy:      -167.1225255
  entropy:           317.7920817
  heat_capacity:     123.7447992
  energy:            109.3565856

- temperature:       880.0000000
  free_energy:      -170.3075315
  entropy:           319.2064480
  heat_capacity:     123.7665137
  energy:            110.5941427

- temperature:       890.0000000
  free_energy:      -173.5066020
  entropy:           320.6050736
  heat_capacity:     123.7875115
  energy:            111.8319135

- temperature:       900.0000000
  free_energy:      -176.7195816
  entropy:           321.9883026
  heat_capacity:     123.8078237
  energy:            113.0698907

- temperature:       910.0000000
  free_energy:      -179.9463179
  entropy:           323.3564677
  heat_capacity:     123.8274798
  energy:            114.3080677

- temperature:       920.0000000
  free_energy:      -183.1866618
  entropy:           324.7098913
  heat_capacity:     123.8465076
  energy:            115.5464382

- temperature:       930.0000000
  free_energy:      -186.4404676
  entropy:           326.0488855
  heat_capacity:     123.8649335
  energy:            116.7849959

- temperature:       940.0000000
  free_energy:      -189.7075924
  entropy:           327.3737525
  heat_capacity:     123.8827825
  energy:            118.0237349

- temperature:       950.0000000
  free_energy:      -192.9878965
  entropy:           328.6847855
  heat_capacity:     123.9000783
  energy:            119.2626497

- temperature:       960.0000000
  free_energy:      -196.2812430
  entropy:           329.9822685
  heat_capacity:     123.9168437
  energy:            120.5017347

- temperature:       970.0000000
  free_energy:      -199.5874977
  entropy:           331.2664768
  heat_capacity:     123.9330998
  energy:            121.7409849

- temperature:       980.0000000
  free_energy:      -202.9065292
  entropy:           332.5376778
  heat_capacity:     123.9488671
  energy:            122.9803951

- temperature:       990.0000000
  free_energy:      -206.2382087
  entropy:           333.7961307
  heat_capacity:     123.9641650
  energy:            124.2199606

- temperature:      1000.0000000
  free_energy:      -209.5824101
  entropy:           335.0420870
  heat_capacity:     123.9790118
  energy:            125.4596769
