# Thermal properties / unit cell (natom)

unit:
  temperature:   K
  free_energy:   kJ/mol
  entropy:       J/K/mol
  heat_capacity: J/K/mol

natom: 20   
cutoff_frequency:    0.000
num_modes: 30720
num_integrated_modes: 30720

zero_point_energy:      27.3491558
high_T_entropy:       2477.6047974

thermal_properties:
- temperature:         0.0000000
  free_energy:        27.3491558
  entropy:             0.0000000
  heat_capacity:       0.0000000
  energy:             27.3491558

- temperature:        10.0000000
  free_energy:        27.2898463
  entropy:            24.6121565
  heat_capacity:      68.9458266
  energy:             27.5359679

- temperature:        20.0000000
  free_energy:        26.6175437
  entropy:           114.1719754
  heat_capacity:     194.3395412
  energy:             28.9009832

- temperature:        30.0000000
  free_energy:        24.9984091
  entropy:           208.3378402
  heat_capacity:     268.9052984
  energy:             31.2485443

- temperature:        40.0000000
  free_energy:        22.4846771
  entropy:           292.6439885
  heat_capacity:     316.3893501
  energy:             34.1904367

- temperature:        50.0000000
  free_energy:        19.1786397
  entropy:           367.0498416
  heat_capacity:     350.0751172
  energy:             37.5311318

- temperature:        60.0000000
  free_energy:        15.1710313
  entropy:           433.2404637
  heat_capacity:     375.7209396
  energy:             41.1654591

- temperature:        70.0000000
  free_energy:        10.5361131
  entropy:           492.7338609
  heat_capacity:     395.9116377
  energy:             45.0274833

- temperature:        80.0000000
  free_energy:         5.3347710
  entropy:           546.6929400
  heat_capacity:     412.0424941
  energy:             49.0702062

- temperature:        90.0000000
  free_energy:        -0.3822666
  entropy:           596.0018383
  heat_capacity:     425.0355093
  energy:             53.2578989

- temperature:       100.0000000
  free_energy:        -6.5720725
  entropy:           641.3481876
  heat_capacity:     435.5723495
  energy:             57.5627462

- temperature:       110.0000000
  free_energy:       -13.1978591
  entropy:           683.2797933
  heat_capacity:     444.1769891
  energy:             61.9629181

- temperature:       120.0000000
  free_energy:       -20.2277775
  entropy:           722.2415575
  heat_capacity:     451.2556207
  energy:             66.4412094

- temperature:       130.0000000
  free_energy:       -27.6340198
  entropy:           758.6001660
  heat_capacity:     457.1232833
  energy:             70.9840018

- temperature:       140.0000000
  free_energy:       -35.3921280
  entropy:           792.6613374
  heat_capacity:     462.0243858
  energy:             75.5804592

- temperature:       150.0000000
  free_energy:       -43.4804504
  entropy:           824.6823729
  heat_capacity:     466.1489204
  energy:             80.2219055

- temperature:       160.0000000
  free_energy:       -51.8797063
  entropy:           854.8815811
  heat_capacity:     469.6451358
  energy:             84.9013467

- temperature:       170.0000000
  free_energy:       -60.5726340
  entropy:           883.4455184
  heat_capacity:     472.6293023
  energy:             89.6131041

- temperature:       180.0000000
  free_energy:       -69.5437030
  entropy:           910.5346489
  heat_capacity:     475.1931598
  energy:             94.3525338

- temperature:       190.0000000
  free_energy:       -78.7788758
  entropy:           936.2878240
  heat_capacity:     477.4095677
  energy:             99.1158108

- temperature:       200.0000000
  free_energy:       -88.2654107
  entropy:           960.8258658
  heat_capacity:     479.3367850
  energy:            103.8997625

- temperature:       210.0000000
  free_energy:       -97.9916964
  entropy:           984.2544580
  heat_capacity:     481.0217166
  energy:            108.7017398

- temperature:       220.0000000
  free_energy:      -107.9471125
  entropy:          1006.6664965
  heat_capacity:     482.5023831
  energy:            113.5195167

- temperature:       230.0000000
  free_energy:      -118.1219122
  entropy:          1028.1440125
  heat_capacity:     483.8098088
  energy:            118.3512106

- temperature:       240.0000000
  free_energy:      -128.5071211
  entropy:          1048.7597579
  heat_capacity:     484.9694722
  energy:            123.1952208

- temperature:       250.0000000
  free_energy:      -139.0944515
  entropy:          1068.5785186
  heat_capacity:     486.0024276
  energy:            128.0501781

- temperature:       260.0000000
  free_energy:      -149.8762286
  entropy:          1087.6582085
  heat_capacity:     486.9261767
  energy:            132.9149056

- temperature:       270.0000000
  free_energy:      -160.8453259
  entropy:          1106.0507873
  heat_capacity:     487.7553510
  energy:            137.7883866

- temperature:       280.0000000
  free_energy:      -171.9951104
  entropy:          1123.8030321
  heat_capacity:     488.5022490
  energy:            142.6697386

- temperature:       290.0000000
  free_energy:      -183.3193934
  entropy:          1140.9571916
  heat_capacity:     489.1772617
  energy:            147.5581922

- temperature:       300.0000000
  free_energy:      -194.8123886
  entropy:          1157.5515412
  heat_capacity:     489.7892117
  energy:            152.4530738

- temperature:       310.0000000
  free_energy:      -206.4686744
  entropy:          1173.6208576
  heat_capacity:     490.3456254
  energy:            157.3537914

- temperature:       320.0000000
  free_energy:      -218.2831615
  entropy:          1189.1968259
  heat_capacity:     490.8529517
  energy:            162.2598228

- temperature:       330.0000000
  free_energy:      -230.2510632
  entropy:          1204.3083898
  heat_capacity:     491.3167402
  energy:            167.1707054

- temperature:       340.0000000
  free_energy:      -242.3678699
  entropy:          1218.9820541
  heat_capacity:     491.7417856
  energy:            172.0860285

- temperature:       350.0000000
  free_energy:      -254.6293259
  entropy:          1233.2421481
  heat_capacity:     492.1322468
  energy:            177.0054259

- temperature:       360.0000000
  free_energy:      -267.0314091
  entropy:          1247.1110538
  heat_capacity:     492.4917441
  energy:            181.9285703

- temperature:       370.0000000
  free_energy:      -279.5703120
  entropy:          1260.6094059
  heat_capacity:     492.8234403
  energy:            186.8551682

- temperature:       380.0000000
  free_energy:      -292.2424257
  entropy:          1273.7562669
  heat_capacity:     493.1301078
  energy:            191.7849557

- temperature:       390.0000000
  free_energy:      -305.0443247
  entropy:          1286.5692813
  heat_capacity:     493.4141841
  energy:            196.7176950

- temperature:       400.0000000
  free_energy:      -317.9727532
  entropy:          1299.0648112
  heat_capacity:     493.6778196
  energy:            201.6531713

- temperature:       410.0000000
  free_energy:      -331.0246134
  entropy:          1311.2580562
  heat_capacity:     493.9229162
  energy:            206.5911897

- temperature:       420.0000000
  free_energy:      -344.1969540
  entropy:          1323.1631605
  heat_capacity:     494.1511614
  energy:            211.5315734

- temperature:       430.0000000
  free_energy:      -357.4869602
  entropy:          1334.7933068
  heat_capacity:     494.3640559
  energy:            216.4741617

- temperature:       440.0000000
  free_energy:      -370.8919447
  entropy:          1346.1608012
  heat_capacity:     494.5629381
  energy:            221.4188079

- temperature:       450.0000000
  free_energy:      -384.4093391
  entropy:          1357.2771487
  heat_capacity:     494.7490045
  energy:            226.3653778

- temperature:       460.0000000
  free_energy:      -398.0366865
  entropy:          1368.1531202
  heat_capacity:     494.9233272
  energy:            231.3137488

- temperature:       470.0000000
  free_energy:      -411.7716340
  entropy:          1378.7988137
  heat_capacity:     495.0868691
  energy:            236.2638084

- temperature:       480.0000000
  free_energy:      -425.6119268
  entropy:          1389.2237083
  heat_capacity:     495.2404968
  energy:            241.2154532

- temperature:       490.0000000
  free_energy:      -439.5554019
  entropy:          1399.4367140
  heat_capacity:     495.3849921
  energy:            246.1685879

- temperature:       500.0000000
  free_energy:      -453.5999828
  entropy:          1409.4462155
  heat_capacity:     495.5210615
  energy:            251.1231249

- temperature:       510.0000000
  free_energy:      -467.7436743
  entropy:          1419.2601127
  heat_capacity:     495.6493448
  energy:            256.0789832

- temperature:       520.0000000
  free_energy:      -481.9845579
  entropy:          1428.8858572
  heat_capacity:     495.7704225
  energy:            261.0360878

- temperature:       530.0000000
  free_energy:      -496.3207877
  entropy:          1438.3304852
  heat_capacity:     495.8848220
  energy:            265.9943694

- temperature:       540.0000000
  free_energy:      -510.7505861
  entropy:          1447.6006476
  heat_capacity:     495.9930238
  energy:            270.9537636

- temperature:       550.0000000
  free_energy:      -525.2722402
  entropy:          1456.7026379
  heat_capacity:     496.0954660
  energy:            275.9142107

- temperature:       560.0000000
  free_energy:      -539.8840982
  entropy:          1465.6424165
  heat_capacity:     496.1925487
  energy:            280.8756551

- temperature:       570.0000000
  free_energy:      -554.5845667
  entropy:          1474.4256345
  heat_capacity:     496.2846381
  energy:            285.8380450

- temperature:       580.0000000
  free_energy:      -569.3721069
  entropy:          1483.0576538
  heat_capacity:     496.3720697
  energy:            290.8013323

- temperature:       590.0000000
  free_energy:      -584.2452327
  entropy:          1491.5435672
  heat_capacity:     496.4551515
  energy:            295.7654719

- temperature:       600.0000000
  free_energy:      -599.2025074
  entropy:          1499.8882153
  heat_capacity:     496.5341662
  energy:            300.7304218

- temperature:       610.0000000
  free_energy:      -614.2425415
  entropy:          1508.0962034
  heat_capacity:     496.6093744
  energy:            305.6961425

- temperature:       620.0000000
  free_energy:      -629.3639906
  entropy:          1516.1719161
  heat_capacity:     496.6810159
  energy:            310.6625974

- temperature:       630.0000000
  free_energy:      -644.5655529
  entropy:          1524.1195311
  heat_capacity:     496.7493121
  energy:            315.6297517

- temperature:       640.0000000
  free_energy:      -659.8459675
  entropy:          1531.9430323
  heat_capacity:     496.8144676
  energy:            320.5975731

- temperature:       650.0000000
  free_energy:      -675.2040125
  entropy:          1539.6462211
  heat_capacity:     496.8766714
  energy:            325.5660312

- temperature:       660.0000000
  free_energy:      -690.6385030
  entropy:          1547.2327278
  heat_capacity:     496.9360988
  energy:            330.5350973

- temperature:       670.0000000
  free_energy:      -706.1482897
  entropy:          1554.7060212
  heat_capacity:     496.9929122
  energy:            335.5047445

- temperature:       680.0000000
  free_energy:      -721.7322571
  entropy:          1562.0694184
  heat_capacity:     497.0472622
  energy:            340.4749474

- temperature:       690.0000000
  free_energy:      -737.3893223
  entropy:          1569.3260932
  heat_capacity:     497.0992890
  energy:            345.4456820

- temperature:       700.0000000
  free_energy:      -753.1184334
  entropy:          1576.4790846
  heat_capacity:     497.1491227
  energy:            350.4169258

- temperature:       710.0000000
  free_energy:      -768.9185681
  entropy:          1583.5313038
  heat_capacity:     497.1968847
  energy:            355.3886575

- temperature:       720.0000000
  free_energy:      -784.7887329
  entropy:          1590.4855415
  heat_capacity:     497.2426879
  energy:            360.3608570

- temperature:       730.0000000
  free_energy:      -800.7279613
  entropy:          1597.3444746
  heat_capacity:     497.2866378
  energy:            365.3335051

- temperature:       740.0000000
  free_energy:      -816.7353133
  entropy:          1604.1106719
  heat_capacity:     497.3288329
  energy:            370.3065839

- temperature:       750.0000000
  free_energy:      -832.8098739
  entropy:          1610.7866001
  heat_capacity:     497.3693651
  energy:            375.2800762

- temperature:       760.0000000
  free_energy:      -848.9507523
  entropy:          1617.3746293
  heat_capacity:     497.4083205
  energy:            380.2539659

- temperature:       770.0000000
  free_energy:      -865.1570810
  entropy:          1623.8770373
  heat_capacity:     497.4457798
  energy:            385.2282377

- temperature:       780.0000000
  free_energy:      -881.4280149
  entropy:          1630.2960151
  heat_capacity:     497.4818183
  energy:            390.2028768

- temperature:       790.0000000
  free_energy:      -897.7627303
  entropy:          1636.6336706
  heat_capacity:     497.5165070
  energy:            395.1778695

- temperature:       800.0000000
  free_energy:      -914.1604241
  entropy:          1642.8920334
  heat_capacity:     497.5499123
  energy:            400.1532027

- temperature:       810.0000000
  free_energy:      -930.6203132
  entropy:          1649.0730579
  heat_capacity:     497.5820966
  energy:            405.1288637

- temperature:       820.0000000
  free_energy:      -947.1416337
  entropy:          1655.1786274
  heat_capacity:     497.6131186
  energy:            410.1048407

- temperature:       830.0000000
  free_energy:      -963.7236403
  entropy:          1661.2105574
  heat_capacity:     497.6430335
  energy:            415.0811224

- temperature:       840.0000000
  free_energy:      -980.3656052
  entropy:          1667.1705989
  heat_capacity:     497.6718934
  energy:            420.0576979

- temperature:       850.0000000
  free_energy:      -997.0668182
  entropy:          1673.0604413
  heat_capacity:     497.6997470
  energy:            425.0345569

- temperature:       860.0000000
  free_energy:     -1013.8265855
  entropy:          1678.8817153
  heat_capacity:     497.7266407
  energy:            430.0116896

- temperature:       870.0000000
  free_energy:     -1030.6442292
  entropy:          1684.6359953
  heat_capacity:     497.7526180
  energy:            434.9890867

- temperature:       880.0000000
  free_energy:     -1047.5190872
  entropy:          1690.3248025
  heat_capacity:     497.7777199
  energy:            439.9667391

- temperature:       890.0000000
  free_energy:     -1064.4505120
  entropy:          1695.9496070
  heat_capacity:     497.8019854
  energy:            444.9446383

- temperature:       900.0000000
  free_energy:     -1081.4378707
  entropy:          1701.5118298
  heat_capacity:     497.8254510
  energy:            449.9227761

- temperature:       910.0000000
  free_energy:     -1098.4805445
  entropy:          1707.0128454
  heat_capacity:     497.8481516
  energy:            454.9011447

- temperature:       920.0000000
  free_energy:     -1115.5779280
  entropy:          1712.4539834
  heat_capacity:     497.8701200
  energy:            459.8797367

- temperature:       930.0000000
  free_energy:     -1132.7294289
  entropy:          1717.8365309
  heat_capacity:     497.8913873
  energy:            464.8585448

- temperature:       940.0000000
  free_energy:     -1149.9344675
  entropy:          1723.1617337
  heat_capacity:     497.9119829
  energy:            469.8375622

- temperature:       950.0000000
  free_energy:     -1167.1924765
  entropy:          1728.4307987
  heat_capacity:     497.9319349
  energy:            474.8167823

- temperature:       960.0000000
  free_energy:     -1184.5029003
  entropy:          1733.6448949
  heat_capacity:     497.9512698
  energy:            479.7961988

- temperature:       970.0000000
  free_energy:     -1201.8651949
  entropy:          1738.8051553
  heat_capacity:     497.9700126
  energy:            484.7758057

- temperature:       980.0000000
  free_energy:     -1219.2788276
  entropy:          1743.9126783
  heat_capacity:     497.9881874
  energy:            489.7555972

- temperature:       990.0000000
  free_energy:     -1236.7432762
  entropy:          1748.9685292
  heat_capacity:     498.0058167
  energy:            494.7355677

- temperature:      1000.0000000
  free_energy:     -1254.2580294
  entropy:          1753.9737412
  heat_capacity:     498.0229222
  energy:            499.7157118
