# Thermal properties / unit cell (natom)

unit:
  temperature:   K
  free_energy:   kJ/mol
  entropy:       J/K/mol
  heat_capacity: J/K/mol

natom: 30   
cutoff_frequency:    0.000
num_modes: 46080
num_integrated_modes: 46040

zero_point_energy:     175.7567941
high_T_entropy:       2503.3756693

thermal_properties:
- temperature:         0.0000000
  free_energy:       175.7567941
  entropy:             0.0000000
  heat_capacity:       0.0000000
  energy:            175.7567941

- temperature:        10.0000000
  free_energy:       175.7557137
  entropy:             0.4124519
  heat_capacity:       1.1673039
  energy:            175.7598382

- temperature:        20.0000000
  free_energy:       175.7412356
  entropy:             2.9995577
  heat_capacity:       8.4758172
  energy:            175.8012267

- temperature:        30.0000000
  free_energy:       175.6838310
  entropy:             9.1129935
  heat_capacity:      24.0464955
  energy:            175.9572208

- temperature:        40.0000000
  free_energy:       175.5463711
  entropy:            18.9930607
  heat_capacity:      46.7814178
  energy:            176.3060935

- temperature:        50.0000000
  free_energy:       175.2923005
  entropy:            32.3673538
  heat_capacity:      74.8552817
  energy:            176.9106682

- temperature:        60.0000000
  free_energy:       174.8889699
  entropy:            48.7556377
  heat_capacity:     106.2720581
  energy:            177.8143082

- temperature:        70.0000000
  free_energy:       174.3089823
  entropy:            67.6064858
  heat_capacity:     139.3046756
  energy:            179.0414364

- temperature:        80.0000000
  free_energy:       173.5304050
  entropy:            88.3903601
  heat_capacity:     172.7221969
  energy:            180.6016338

- temperature:        90.0000000
  free_energy:       172.5362744
  entropy:           110.6471982
  heat_capacity:     205.7422796
  energy:            182.4945222

- temperature:       100.0000000
  free_energy:       171.3138254
  entropy:           133.9971427
  heat_capacity:     237.8862658
  energy:            184.7135397

- temperature:       110.0000000
  free_energy:       169.8537192
  entropy:           158.1327582
  heat_capacity:     268.8561810
  energy:            187.2483226

- temperature:       120.0000000
  free_energy:       168.1493834
  entropy:           182.8060088
  heat_capacity:     298.4606545
  energy:            190.0861044

- temperature:       130.0000000
  free_energy:       166.1964805
  entropy:           207.8160815
  heat_capacity:     326.5773979
  energy:            193.2125710

- temperature:       140.0000000
  free_energy:       163.9924864
  entropy:           232.9997474
  heat_capacity:     353.1351105
  energy:            196.6124511

- temperature:       150.0000000
  free_energy:       161.5363525
  entropy:           258.2241282
  heat_capacity:     378.1034994
  energy:            200.2699718

- temperature:       160.0000000
  free_energy:       158.8282303
  entropy:           283.3812579
  heat_capacity:     401.4859501
  energy:            204.1692316

- temperature:       170.0000000
  free_energy:       155.8692443
  entropy:           308.3838772
  heat_capacity:     423.3128934
  energy:            208.2945035

- temperature:       180.0000000
  free_energy:       152.6613025
  entropy:           333.1620604
  heat_capacity:     443.6355107
  energy:            212.6304734

- temperature:       190.0000000
  free_energy:       149.2069372
  entropy:           357.6604287
  heat_capacity:     462.5199480
  energy:            217.1624186

- temperature:       200.0000000
  free_energy:       145.5091717
  entropy:           381.8357979
  heat_capacity:     480.0422581
  energy:            221.8763313

- temperature:       210.0000000
  free_energy:       141.5714088
  entropy:           405.6551754
  heat_capacity:     496.2841983
  energy:            226.7589957

- temperature:       220.0000000
  free_energy:       137.3973374
  entropy:           429.0940476
  heat_capacity:     511.3298946
  energy:            231.7980278

- temperature:       230.0000000
  free_energy:       132.9908552
  entropy:           452.1349173
  heat_capacity:     525.2633075
  energy:            236.9818862

- temperature:       240.0000000
  free_energy:       128.3560053
  entropy:           474.7660610
  heat_capacity:     538.1663917
  energy:            242.2998599

- temperature:       250.0000000
  free_energy:       123.4969235
  entropy:           496.9804752
  heat_capacity:     550.1178258
  energy:            247.7420423

- temperature:       260.0000000
  free_energy:       118.4177958
  entropy:           518.7749908
  heat_capacity:     561.1921956
  energy:            253.2992934

- temperature:       270.0000000
  free_energy:       113.1228239
  entropy:           540.1495286
  heat_capacity:     571.4595228
  energy:            258.9631966

- temperature:       280.0000000
  free_energy:       107.6161974
  entropy:           561.1064798
  heat_capacity:     580.9850527
  energy:            264.7260117

- temperature:       290.0000000
  free_energy:       101.9020719
  entropy:           581.6501899
  heat_capacity:     589.8292268
  energy:            270.5806270

- temperature:       300.0000000
  free_energy:        95.9845516
  entropy:           601.7865326
  heat_capacity:     598.0477858
  energy:            276.5205114

- temperature:       310.0000000
  free_energy:        89.8676757
  entropy:           621.5225574
  heat_capacity:     605.6919578
  energy:            282.5396686

- temperature:       320.0000000
  free_energy:        83.5554085
  entropy:           640.8662013
  heat_capacity:     612.8087007
  energy:            288.6325929

- temperature:       330.0000000
  free_energy:        77.0516311
  entropy:           659.8260515
  heat_capacity:     619.4409753
  energy:            294.7942281

- temperature:       340.0000000
  free_energy:        70.3601366
  entropy:           678.4111532
  heat_capacity:     625.6280304
  energy:            301.0199287

- temperature:       350.0000000
  free_energy:        63.4846260
  entropy:           696.6308524
  heat_capacity:     631.4056893
  energy:            307.3054244

- temperature:       360.0000000
  free_energy:        56.4287059
  entropy:           714.4946701
  heat_capacity:     636.8066302
  energy:            313.6467871

- temperature:       370.0000000
  free_energy:        49.1958869
  entropy:           732.0121999
  heat_capacity:     641.8606529
  energy:            320.0404009

- temperature:       380.0000000
  free_energy:        41.7895842
  entropy:           749.1930274
  heat_capacity:     646.5949319
  energy:            326.4829346

- temperature:       390.0000000
  free_energy:        34.2131170
  entropy:           766.0466656
  heat_capacity:     651.0342509
  energy:            332.9713166

- temperature:       400.0000000
  free_energy:        26.4697102
  entropy:           782.5825045
  heat_capacity:     655.2012205
  energy:            339.5027120

- temperature:       410.0000000
  free_energy:        18.5624955
  entropy:           798.8097724
  heat_capacity:     659.1164785
  energy:            346.0745021

- temperature:       420.0000000
  free_energy:        10.4945132
  entropy:           814.7375056
  heat_capacity:     662.7988720
  energy:            352.6842655

- temperature:       430.0000000
  free_energy:         2.2687144
  entropy:           830.3745269
  heat_capacity:     666.2656246
  energy:            359.3297609

- temperature:       440.0000000
  free_energy:        -6.1120370
  entropy:           845.7294293
  heat_capacity:     669.5324874
  energy:            366.0089119

- temperature:       450.0000000
  free_energy:       -14.6449617
  entropy:           860.8105650
  heat_capacity:     672.6138764
  energy:            372.7197926

- temperature:       460.0000000
  free_energy:       -23.3273628
  entropy:           875.6260393
  heat_capacity:     675.5229965
  energy:            379.4606153

- temperature:       470.0000000
  free_energy:       -32.1566231
  entropy:           890.1837062
  heat_capacity:     678.2719538
  energy:            386.2297187

- temperature:       480.0000000
  free_energy:       -41.1302029
  entropy:           904.4911678
  heat_capacity:     680.8718572
  energy:            393.0255576

- temperature:       490.0000000
  free_energy:       -50.2456370
  entropy:           918.5557758
  heat_capacity:     683.3329096
  energy:            399.8466931

- temperature:       500.0000000
  free_energy:       -59.5005326
  entropy:           932.3846339
  heat_capacity:     685.6644907
  energy:            406.6917843

- temperature:       510.0000000
  free_energy:       -68.8925668
  entropy:           945.9846019
  heat_capacity:     687.8752318
  energy:            413.5595802

- temperature:       520.0000000
  free_energy:       -78.4194838
  entropy:           959.3623010
  heat_capacity:     689.9730827
  energy:            420.4489127

- temperature:       530.0000000
  free_energy:       -88.0790932
  entropy:           972.5241194
  heat_capacity:     691.9653724
  energy:            427.3586901

- temperature:       540.0000000
  free_energy:       -97.8692671
  entropy:           985.4762186
  heat_capacity:     693.8588647
  energy:            434.2878909

- temperature:       550.0000000
  free_energy:      -107.7879383
  entropy:           998.2245405
  heat_capacity:     695.6598069
  energy:            441.2355589

- temperature:       560.0000000
  free_energy:      -117.8330978
  entropy:          1010.7748137
  heat_capacity:     697.3739751
  energy:            448.2007979

- temperature:       570.0000000
  free_energy:      -128.0027929
  entropy:          1023.1325613
  heat_capacity:     699.0067149
  energy:            455.1827670

- temperature:       580.0000000
  free_energy:      -138.2951251
  entropy:          1035.3031075
  heat_capacity:     700.5629775
  energy:            462.1806773

- temperature:       590.0000000
  free_energy:      -148.7082482
  entropy:          1047.2915850
  heat_capacity:     702.0473537
  energy:            469.1937870

- temperature:       600.0000000
  free_energy:      -159.2403664
  entropy:          1059.1029422
  heat_capacity:     703.4641036
  energy:            476.2213990

- temperature:       610.0000000
  free_energy:      -169.8897325
  entropy:          1070.7419498
  heat_capacity:     704.8171838
  energy:            483.2628569

- temperature:       620.0000000
  free_energy:      -180.6546462
  entropy:          1082.2132079
  heat_capacity:     706.1102728
  energy:            490.3175427

- temperature:       630.0000000
  free_energy:      -191.5334523
  entropy:          1093.5211526
  heat_capacity:     707.3467930
  energy:            497.3848738

- temperature:       640.0000000
  free_energy:      -202.5245392
  entropy:          1104.6700622
  heat_capacity:     708.5299317
  energy:            504.4643006

- temperature:       650.0000000
  free_energy:      -213.6263372
  entropy:          1115.6640641
  heat_capacity:     709.6626593
  energy:            511.5553044

- temperature:       660.0000000
  free_energy:      -224.8373174
  entropy:          1126.5071400
  heat_capacity:     710.7477469
  energy:            518.6573950

- temperature:       670.0000000
  free_energy:      -236.1559898
  entropy:          1137.2031328
  heat_capacity:     711.7877813
  energy:            525.7701092

- temperature:       680.0000000
  free_energy:      -247.5809021
  entropy:          1147.7557510
  heat_capacity:     712.7851794
  energy:            532.8930086

- temperature:       690.0000000
  free_energy:      -259.1106388
  entropy:          1158.1685754
  heat_capacity:     713.7422012
  energy:            540.0256782

- temperature:       700.0000000
  free_energy:      -270.7438192
  entropy:          1168.4450633
  heat_capacity:     714.6609615
  energy:            547.1677251

- temperature:       710.0000000
  free_energy:      -282.4790968
  entropy:          1178.5885539
  heat_capacity:     715.5434409
  energy:            554.3187765

- temperature:       720.0000000
  free_energy:      -294.3151577
  entropy:          1188.6022734
  heat_capacity:     716.3914955
  energy:            561.4784791

- temperature:       730.0000000
  free_energy:      -306.2507201
  entropy:          1198.4893391
  heat_capacity:     717.2068661
  energy:            568.6464975

- temperature:       740.0000000
  free_energy:      -318.2845324
  entropy:          1208.2527640
  heat_capacity:     717.9911867
  energy:            575.8225130

- temperature:       750.0000000
  free_energy:      -330.4153729
  entropy:          1217.8954610
  heat_capacity:     718.7459918
  energy:            583.0062229

- temperature:       760.0000000
  free_energy:      -342.6420486
  entropy:          1227.4202471
  heat_capacity:     719.4727238
  energy:            590.1973392

- temperature:       770.0000000
  free_energy:      -354.9633939
  entropy:          1236.8298470
  heat_capacity:     720.1727392
  energy:            597.3955883

- temperature:       780.0000000
  free_energy:      -367.3782704
  entropy:          1246.1268969
  heat_capacity:     720.8473147
  energy:            604.6007092

- temperature:       790.0000000
  free_energy:      -379.8855652
  entropy:          1255.3139481
  heat_capacity:     721.4976528
  energy:            611.8124538

- temperature:       800.0000000
  free_energy:      -392.4841909
  entropy:          1264.3934702
  heat_capacity:     722.1248866
  energy:            619.0305853

- temperature:       810.0000000
  free_energy:      -405.1730842
  entropy:          1273.3678546
  heat_capacity:     722.7300845
  energy:            626.2548781

- temperature:       820.0000000
  free_energy:      -417.9512053
  entropy:          1282.2394173
  heat_capacity:     723.3142547
  energy:            633.4851169

- temperature:       830.0000000
  free_energy:      -430.8175373
  entropy:          1291.0104018
  heat_capacity:     723.8783492
  energy:            640.7210963

- temperature:       840.0000000
  free_energy:      -443.7710853
  entropy:          1299.6829825
  heat_capacity:     724.4232671
  energy:            647.9626200

- temperature:       850.0000000
  free_energy:      -456.8108759
  entropy:          1308.2592664
  heat_capacity:     724.9498587
  energy:            655.2095005

- temperature:       860.0000000
  free_energy:      -469.9359565
  entropy:          1316.7412967
  heat_capacity:     725.4589277
  energy:            662.4615587

- temperature:       870.0000000
  free_energy:      -483.1453943
  entropy:          1325.1310546
  heat_capacity:     725.9512351
  energy:            669.7186232

- temperature:       880.0000000
  free_energy:      -496.4382764
  entropy:          1333.4304618
  heat_capacity:     726.4275014
  energy:            676.9805300

- temperature:       890.0000000
  free_energy:      -509.8137086
  entropy:          1341.6413827
  heat_capacity:     726.8884090
  energy:            684.2471220

- temperature:       900.0000000
  free_energy:      -523.2708151
  entropy:          1349.7656269
  heat_capacity:     727.3346050
  energy:            691.5182491

- temperature:       910.0000000
  free_energy:      -536.8087381
  entropy:          1357.8049508
  heat_capacity:     727.7667030
  energy:            698.7937672

- temperature:       920.0000000
  free_energy:      -550.4266368
  entropy:          1365.7610597
  heat_capacity:     728.1852852
  energy:            706.0735381

- temperature:       930.0000000
  free_energy:      -564.1236874
  entropy:          1373.6356097
  heat_capacity:     728.5909045
  energy:            713.3574296

- temperature:       940.0000000
  free_energy:      -577.8990825
  entropy:          1381.4302098
  heat_capacity:     728.9840858
  energy:            720.6453148

- temperature:       950.0000000
  free_energy:      -591.7520303
  entropy:          1389.1464230
  heat_capacity:     729.3653283
  energy:            727.9370716

- temperature:       960.0000000
  free_energy:      -605.6817547
  entropy:          1396.7857686
  heat_capacity:     729.7351063
  energy:            735.2325831

- temperature:       970.0000000
  free_energy:      -619.6874944
  entropy:          1404.3497231
  heat_capacity:     730.0938712
  energy:            742.5317370

- temperature:       980.0000000
  free_energy:      -633.7685026
  entropy:          1411.8397224
  heat_capacity:     730.4420524
  energy:            749.8344253

- temperature:       990.0000000
  free_energy:      -647.9240470
  entropy:          1419.2571627
  heat_capacity:     730.7800590
  energy:            757.1405441

- temperature:      1000.0000000
  free_energy:      -662.1534086
  entropy:          1426.6034024
  heat_capacity:     731.1082804
  energy:            764.4499938
