# Thermal properties / unit cell (natom)

unit:
  temperature:   K
  free_energy:   kJ/mol
  entropy:       J/K/mol
  heat_capacity: J/K/mol

natom: 20   
cutoff_frequency:    0.000
num_modes: 30720
num_integrated_modes: 30720

zero_point_energy:      23.3522732
high_T_entropy:       2459.5444133

thermal_properties:
- temperature:         0.0000000
  free_energy:        23.3522732
  entropy:             0.0000000
  heat_capacity:       0.0000000
  energy:             23.3522732

- temperature:        10.0000000
  free_energy:        23.3153434
  entropy:            14.2460525
  heat_capacity:      38.9254337
  energy:             23.4578040

- temperature:        20.0000000
  free_energy:        22.9013030
  entropy:            74.6069843
  heat_capacity:     150.8223596
  energy:             24.3934427

- temperature:        30.0000000
  free_energy:        21.7566293
  entropy:           155.6585847
  heat_capacity:     251.0484332
  energy:             26.4263868

- temperature:        40.0000000
  free_energy:        19.7842565
  entropy:           238.2667218
  heat_capacity:     322.0471640
  energy:             29.3149253

- temperature:        50.0000000
  free_energy:        17.0094220
  entropy:           315.5935965
  heat_capacity:     369.5886159
  energy:             32.7891019

- temperature:        60.0000000
  free_energy:        13.4956666
  entropy:           385.9895447
  heat_capacity:     401.5449761
  energy:             36.6550392

- temperature:        70.0000000
  free_energy:         9.3121626
  entropy:           449.6410287
  heat_capacity:     423.5411561
  energy:             40.7870346

- temperature:        80.0000000
  free_energy:         4.5229222
  entropy:           507.2711692
  heat_capacity:     439.1191018
  energy:             45.1046157

- temperature:        90.0000000
  free_energy:        -0.8158675
  entropy:           559.6806474
  heat_capacity:     450.4627710
  energy:             49.5553908

- temperature:       100.0000000
  free_energy:        -6.6557388
  entropy:           607.6009297
  heat_capacity:     458.9354649
  energy:             54.1043542

- temperature:       110.0000000
  free_energy:       -12.9550235
  entropy:           651.6589976
  heat_capacity:     465.4083236
  energy:             58.7274662

- temperature:       120.0000000
  free_energy:       -19.6778046
  entropy:           692.3798677
  heat_capacity:     470.4527969
  energy:             63.4077795

- temperature:       130.0000000
  free_energy:       -26.7929603
  entropy:           730.2001262
  heat_capacity:     474.4535782
  energy:             68.1330561

- temperature:       140.0000000
  free_energy:       -34.2733558
  entropy:           765.4830065
  heat_capacity:     477.6760168
  energy:             72.8942651

- temperature:       150.0000000
  free_energy:       -42.0951793
  entropy:           798.5319391
  heat_capacity:     480.3072814
  energy:             77.6846116

- temperature:       160.0000000
  free_energy:       -50.2374022
  entropy:           829.6018462
  heat_capacity:     482.4821116
  energy:             82.4988932

- temperature:       170.0000000
  free_energy:       -58.6813415
  entropy:           858.9082702
  heat_capacity:     484.2993128
  energy:             87.3330645

- temperature:       180.0000000
  free_energy:       -67.4103037
  entropy:           886.6346591
  heat_capacity:     485.8325637
  energy:             92.1839349

- temperature:       190.0000000
  free_energy:       -76.4092941
  entropy:           912.9381616
  heat_capacity:     487.1376482
  energy:             97.0489566

- temperature:       200.0000000
  free_energy:       -85.6647775
  entropy:           937.9542433
  heat_capacity:     488.2573900
  energy:            101.9260711

- temperature:       210.0000000
  free_energy:       -95.1644808
  entropy:           961.8003769
  heat_capacity:     489.2250807
  energy:            106.8135984

- temperature:       220.0000000
  free_energy:      -104.8972281
  entropy:           984.5790086
  heat_capacity:     490.0669021
  energy:            111.7101538

- temperature:       230.0000000
  free_energy:      -114.8528032
  entropy:          1006.3799559
  heat_capacity:     490.8036631
  energy:            116.6145866

- temperature:       240.0000000
  free_energy:      -125.0218331
  entropy:          1027.2823581
  heat_capacity:     491.4520645
  energy:            121.5259329

- temperature:       250.0000000
  free_energy:      -135.3956896
  entropy:          1047.3562734
  heat_capacity:     492.0256300
  energy:            126.4433788

- temperature:       260.0000000
  free_energy:      -145.9664053
  entropy:          1066.6639936
  heat_capacity:     492.5354023
  energy:            131.3662330

- temperature:       270.0000000
  free_energy:      -156.7266015
  entropy:          1085.2611338
  heat_capacity:     492.9904677
  energy:            136.2939046

- temperature:       280.0000000
  free_energy:      -167.6694261
  entropy:          1103.1975406
  heat_capacity:     493.3983562
  energy:            141.2258853

- temperature:       290.0000000
  free_energy:      -178.7884998
  entropy:          1120.5180530
  heat_capacity:     493.7653494
  energy:            146.1617355

- temperature:       300.0000000
  free_energy:      -190.0778695
  entropy:          1137.2631437
  heat_capacity:     494.0967208
  energy:            151.1010736

- temperature:       310.0000000
  free_energy:      -201.5319672
  entropy:          1153.4694622
  heat_capacity:     494.3969225
  energy:            156.0435661

- temperature:       320.0000000
  free_energy:      -213.1455741
  entropy:          1169.1702967
  heat_capacity:     494.6697344
  energy:            160.9889208

- temperature:       330.0000000
  free_energy:      -224.9137895
  entropy:          1184.3959692
  heat_capacity:     494.9183815
  energy:            165.9368803

- temperature:       340.0000000
  free_energy:      -236.8320022
  entropy:          1199.1741747
  heat_capacity:     495.1456290
  energy:            170.8872172

- temperature:       350.0000000
  free_energy:      -248.8958662
  entropy:          1213.5302736
  heat_capacity:     495.3538584
  energy:            175.8397295

- temperature:       360.0000000
  free_energy:      -261.1012785
  entropy:          1227.4875453
  heat_capacity:     495.5451298
  energy:            180.7942378

- temperature:       370.0000000
  free_energy:      -273.4443593
  entropy:          1241.0674078
  heat_capacity:     495.7212321
  energy:            185.7505816

- temperature:       380.0000000
  free_energy:      -285.9214346
  entropy:          1254.2896098
  heat_capacity:     495.8837248
  energy:            190.7086171

- temperature:       390.0000000
  free_energy:      -298.5290203
  entropy:          1267.1723988
  heat_capacity:     496.0339726
  energy:            195.6682153

- temperature:       400.0000000
  free_energy:      -311.2638076
  entropy:          1279.7326685
  heat_capacity:     496.1731734
  energy:            200.6292598

- temperature:       410.0000000
  free_energy:      -324.1226509
  entropy:          1291.9860887
  heat_capacity:     496.3023825
  energy:            205.5916455

- temperature:       420.0000000
  free_energy:      -337.1025552
  entropy:          1303.9472202
  heat_capacity:     496.4225323
  energy:            210.5552772

- temperature:       430.0000000
  free_energy:      -350.2006663
  entropy:          1315.6296162
  heat_capacity:     496.5344490
  energy:            215.5200687

- temperature:       440.0000000
  free_energy:      -363.4142607
  entropy:          1327.0459134
  heat_capacity:     496.6388670
  energy:            220.4859412

- temperature:       450.0000000
  free_energy:      -376.7407370
  entropy:          1338.2079116
  heat_capacity:     496.7364406
  energy:            225.4528232

- temperature:       460.0000000
  free_energy:      -390.1776081
  entropy:          1349.1266462
  heat_capacity:     496.8277545
  energy:            230.4206492

- temperature:       470.0000000
  free_energy:      -403.7224936
  entropy:          1359.8124527
  heat_capacity:     496.9133320
  energy:            235.3893592

- temperature:       480.0000000
  free_energy:      -417.3731131
  entropy:          1370.2750237
  heat_capacity:     496.9936434
  energy:            240.3588983

- temperature:       490.0000000
  free_energy:      -431.1272803
  entropy:          1380.5234617
  heat_capacity:     497.0691115
  energy:            245.3292159

- temperature:       500.0000000
  free_energy:      -444.9828971
  entropy:          1390.5663255
  heat_capacity:     497.1401175
  energy:            250.3002656

- temperature:       510.0000000
  free_energy:      -458.9379485
  entropy:          1400.4116726
  heat_capacity:     497.2070061
  energy:            255.2720045

- temperature:       520.0000000
  free_energy:      -472.9904976
  entropy:          1410.0670974
  heat_capacity:     497.2700893
  energy:            260.2443931

- temperature:       530.0000000
  free_energy:      -487.1386813
  entropy:          1419.5397658
  heat_capacity:     497.3296500
  energy:            265.2173946

- temperature:       540.0000000
  free_energy:      -501.3807063
  entropy:          1428.8364472
  heat_capacity:     497.3859455
  energy:            270.1909752

- temperature:       550.0000000
  free_energy:      -515.7148450
  entropy:          1437.9635425
  heat_capacity:     497.4392099
  energy:            275.1651034

- temperature:       560.0000000
  free_energy:      -530.1394321
  entropy:          1446.9271109
  heat_capacity:     497.4896568
  energy:            280.1397500

- temperature:       570.0000000
  free_energy:      -544.6528613
  entropy:          1455.7328931
  heat_capacity:     497.5374813
  energy:            285.1148878

- temperature:       580.0000000
  free_energy:      -559.2535822
  entropy:          1464.3863339
  heat_capacity:     497.5828619
  energy:            290.0904915

- temperature:       590.0000000
  free_energy:      -573.9400974
  entropy:          1472.8926014
  heat_capacity:     497.6259622
  energy:            295.0665374

- temperature:       600.0000000
  free_energy:      -588.7109600
  entropy:          1481.2566061
  heat_capacity:     497.6669323
  energy:            300.0430036

- temperature:       610.0000000
  free_energy:      -603.5647709
  entropy:          1489.4830170
  heat_capacity:     497.7059102
  energy:            305.0198694

- temperature:       620.0000000
  free_energy:      -618.5001766
  entropy:          1497.5762777
  heat_capacity:     497.7430229
  energy:            309.9971156

- temperature:       630.0000000
  free_energy:      -633.5158668
  entropy:          1505.5406204
  heat_capacity:     497.7783875
  energy:            314.9747241

- temperature:       640.0000000
  free_energy:      -648.6105727
  entropy:          1513.3800791
  heat_capacity:     497.8121121
  energy:            319.9526779

- temperature:       650.0000000
  free_energy:      -663.7830649
  entropy:          1521.0985017
  heat_capacity:     497.8442963
  energy:            324.9309612

- temperature:       660.0000000
  free_energy:      -679.0321515
  entropy:          1528.6995614
  heat_capacity:     497.8750325
  energy:            329.9095590

- temperature:       670.0000000
  free_energy:      -694.3566766
  entropy:          1536.1867671
  heat_capacity:     497.9044063
  energy:            334.8884573

- temperature:       680.0000000
  free_energy:      -709.7555186
  entropy:          1543.5634727
  heat_capacity:     497.9324969
  energy:            339.8676428

- temperature:       690.0000000
  free_energy:      -725.2275885
  entropy:          1550.8328865
  heat_capacity:     497.9593780
  energy:            344.8471032

- temperature:       700.0000000
  free_energy:      -740.7718289
  entropy:          1557.9980793
  heat_capacity:     497.9851180
  energy:            349.8268266

- temperature:       710.0000000
  free_energy:      -756.3872125
  entropy:          1565.0619922
  heat_capacity:     498.0097806
  energy:            354.8068020

- temperature:       720.0000000
  free_energy:      -772.0727406
  entropy:          1572.0274436
  heat_capacity:     498.0334249
  energy:            359.7870188

- temperature:       730.0000000
  free_energy:      -787.8274422
  entropy:          1578.8971362
  heat_capacity:     498.0561063
  energy:            364.7674673

- temperature:       740.0000000
  free_energy:      -803.6503727
  entropy:          1585.6736630
  heat_capacity:     498.0778764
  energy:            369.7481379

- temperature:       750.0000000
  free_energy:      -819.5406132
  entropy:          1592.3595135
  heat_capacity:     498.0987832
  energy:            374.7290219

- temperature:       760.0000000
  free_energy:      -835.4972687
  entropy:          1598.9570784
  heat_capacity:     498.1188718
  energy:            379.7101108

- temperature:       770.0000000
  free_energy:      -851.5194681
  entropy:          1605.4686557
  heat_capacity:     498.1381844
  energy:            384.6913968

- temperature:       780.0000000
  free_energy:      -867.6063626
  entropy:          1611.8964547
  heat_capacity:     498.1567603
  energy:            389.6728721

- temperature:       790.0000000
  free_energy:      -883.7571251
  entropy:          1618.2426009
  heat_capacity:     498.1746366
  energy:            394.6545296

- temperature:       800.0000000
  free_energy:      -899.9709493
  entropy:          1624.5091398
  heat_capacity:     498.1918479
  energy:            399.6363626

- temperature:       810.0000000
  free_energy:      -916.2470491
  entropy:          1630.6980414
  heat_capacity:     498.2084268
  energy:            404.6183645

- temperature:       820.0000000
  free_energy:      -932.5846576
  entropy:          1636.8112034
  heat_capacity:     498.2244039
  energy:            409.6005291

- temperature:       830.0000000
  free_energy:      -948.9830268
  entropy:          1642.8504547
  heat_capacity:     498.2398080
  energy:            414.5828507

- temperature:       840.0000000
  free_energy:      -965.4414263
  entropy:          1648.8175592
  heat_capacity:     498.2546661
  energy:            419.5653235

- temperature:       850.0000000
  free_energy:      -981.9591431
  entropy:          1654.7142181
  heat_capacity:     498.2690037
  energy:            424.5479422

- temperature:       860.0000000
  free_energy:      -998.5354813
  entropy:          1660.5420734
  heat_capacity:     498.2828449
  energy:            429.5307019

- temperature:       870.0000000
  free_energy:     -1015.1697606
  entropy:          1666.3027105
  heat_capacity:     498.2962122
  energy:            434.5135976

- temperature:       880.0000000
  free_energy:     -1031.8613165
  entropy:          1671.9976604
  heat_capacity:     498.3091271
  energy:            439.4966246

- temperature:       890.0000000
  free_energy:     -1048.6094998
  entropy:          1677.6284027
  heat_capacity:     498.3216097
  energy:            444.4797787

- temperature:       900.0000000
  free_energy:     -1065.4136753
  entropy:          1683.1963675
  heat_capacity:     498.3336792
  energy:            449.4630554

- temperature:       910.0000000
  free_energy:     -1082.2732225
  entropy:          1688.7029378
  heat_capacity:     498.3453535
  energy:            454.4464509

- temperature:       920.0000000
  free_energy:     -1099.1875339
  entropy:          1694.1494513
  heat_capacity:     498.3566497
  energy:            459.4299612

- temperature:       930.0000000
  free_energy:     -1116.1560156
  entropy:          1699.5372025
  heat_capacity:     498.3675840
  energy:            464.4135827

- temperature:       940.0000000
  free_energy:     -1133.1780863
  entropy:          1704.8674447
  heat_capacity:     498.3781716
  energy:            469.3973118

- temperature:       950.0000000
  free_energy:     -1150.2531769
  entropy:          1710.1413915
  heat_capacity:     498.3884270
  energy:            474.3811450

- temperature:       960.0000000
  free_energy:     -1167.3807304
  entropy:          1715.3602183
  heat_capacity:     498.3983640
  energy:            479.3650793

- temperature:       970.0000000
  free_energy:     -1184.5602013
  entropy:          1720.5250645
  heat_capacity:     498.4079957
  energy:            484.3491113

- temperature:       980.0000000
  free_energy:     -1201.7910554
  entropy:          1725.6370343
  heat_capacity:     498.4173344
  energy:            489.3332382

- temperature:       990.0000000
  free_energy:     -1219.0727693
  entropy:          1730.6971983
  heat_capacity:     498.4263918
  energy:            494.3174571

- temperature:      1000.0000000
  free_energy:     -1236.4048301
  entropy:          1735.7065953
  heat_capacity:     498.4351792
  energy:            499.3017651
