# Thermal properties / unit cell (natom)

unit:
  temperature:   K
  free_energy:   kJ/mol
  entropy:       J/K/mol
  heat_capacity: J/K/mol

natom: 20   
cutoff_frequency:    0.000
num_modes: 30720
num_integrated_modes: 30720

zero_point_energy:      28.7378332
high_T_entropy:       2451.8514406

thermal_properties:
- temperature:         0.0000000
  free_energy:        28.7378332
  entropy:             0.0000000
  heat_capacity:       0.0000000
  energy:             28.7378332

- temperature:        10.0000000
  free_energy:        28.6614897
  entropy:            27.3385061
  heat_capacity:      64.1516312
  energy:             28.9348748

- temperature:        20.0000000
  free_energy:        28.0015812
  entropy:           108.5505992
  heat_capacity:     177.8150644
  energy:             30.1725932

- temperature:        30.0000000
  free_energy:        26.4741221
  entropy:           196.1800547
  heat_capacity:     253.9801846
  energy:             32.3595237

- temperature:        40.0000000
  free_energy:        24.1030510
  entropy:           276.5945608
  heat_capacity:     304.3370163
  energy:             35.1668335

- temperature:        50.0000000
  free_energy:        20.9705465
  entropy:           348.5676579
  heat_capacity:     340.2957219
  energy:             38.3989294

- temperature:        60.0000000
  free_energy:        17.1563939
  entropy:           413.1322729
  heat_capacity:     367.6347539
  energy:             41.9443303

- temperature:        70.0000000
  free_energy:        12.7285964
  entropy:           471.4805637
  heat_capacity:     389.1198710
  energy:             45.7322358

- temperature:        80.0000000
  free_energy:         7.7441828
  entropy:           524.6018755
  heat_capacity:     406.2707486
  energy:             49.7123328

- temperature:        90.0000000
  free_energy:         2.2513519
  entropy:           573.2800500
  heat_capacity:     420.0849023
  energy:             53.8465564

- temperature:       100.0000000
  free_energy:        -3.7087060
  entropy:           618.1406595
  heat_capacity:     431.2921876
  energy:             58.1053599

- temperature:       110.0000000
  free_energy:       -10.1004372
  entropy:           659.6910825
  heat_capacity:     440.4498186
  energy:             62.4655818

- temperature:       120.0000000
  free_energy:       -16.8928932
  entropy:           698.3488594
  heat_capacity:     447.9883285
  energy:             66.9089699

- temperature:       130.0000000
  free_energy:       -24.0589371
  entropy:           734.4616033
  heat_capacity:     454.2412397
  energy:             71.4210713

- temperature:       140.0000000
  free_energy:       -31.5746204
  entropy:           768.3214187
  heat_capacity:     459.4672852
  energy:             75.9903782

- temperature:       150.0000000
  free_energy:       -39.4186844
  entropy:           800.1756942
  heat_capacity:     463.8676911
  energy:             80.6076698

- temperature:       160.0000000
  free_energy:       -47.5721557
  entropy:           830.2353942
  heat_capacity:     467.5995878
  energy:             85.2655074

- temperature:       170.0000000
  free_energy:       -56.0180165
  entropy:           858.6815509
  heat_capacity:     470.7863127
  energy:             89.9578471

- temperature:       180.0000000
  free_energy:       -64.7409314
  entropy:           885.6704145
  heat_capacity:     473.5252618
  energy:             94.6797432

- temperature:       190.0000000
  free_energy:       -73.7270211
  entropy:           911.3375821
  heat_capacity:     475.8938476
  energy:             99.4271195

- temperature:       200.0000000
  free_energy:       -82.9636732
  entropy:           935.8013335
  heat_capacity:     477.9540154
  energy:            104.1965935

- temperature:       210.0000000
  free_energy:       -92.4393833
  entropy:           959.1653451
  heat_capacity:     479.7556713
  energy:            108.9853392

- temperature:       220.0000000
  free_energy:      -102.1436198
  entropy:           981.5209125
  heat_capacity:     481.3392933
  energy:            113.7909809

- temperature:       230.0000000
  free_energy:      -112.0667102
  entropy:          1002.9487795
  heat_capacity:     482.7379294
  energy:            118.6115091

- temperature:       240.0000000
  free_energy:      -122.1997430
  entropy:          1023.5206537
  heat_capacity:     483.9787338
  energy:            123.4452139

- temperature:       250.0000000
  free_energy:      -132.5344838
  entropy:          1043.3004669
  heat_capacity:     485.0841554
  energy:            128.2906329

- temperature:       260.0000000
  free_energy:      -143.0633035
  entropy:          1062.3454299
  heat_capacity:     486.0728632
  energy:            133.1465083

- temperature:       270.0000000
  free_energy:      -153.7791147
  entropy:          1080.7069192
  heat_capacity:     486.9604702
  energy:            138.0117534

- temperature:       280.0000000
  free_energy:      -164.6753184
  entropy:          1098.4312253
  heat_capacity:     487.7601043
  energy:            142.8854247

- temperature:       290.0000000
  free_energy:      -175.7457552
  entropy:          1115.5601885
  heat_capacity:     488.4828607
  energy:            147.7666994

- temperature:       300.0000000
  free_energy:      -186.9846645
  entropy:          1132.1317391
  heat_capacity:     489.1381628
  energy:            152.6548572

- temperature:       310.0000000
  free_energy:      -198.3866472
  entropy:          1148.1803613
  heat_capacity:     489.7340510
  energy:            157.5492648

- temperature:       320.0000000
  free_energy:      -209.9466337
  entropy:          1163.7374906
  heat_capacity:     490.2774169
  energy:            162.4493633

- temperature:       330.0000000
  free_energy:      -221.6598548
  entropy:          1178.8318566
  heat_capacity:     490.7741918
  energy:            167.3546579

- temperature:       340.0000000
  free_energy:      -233.5218163
  entropy:          1193.4897801
  heat_capacity:     491.2295016
  energy:            172.2647090

- temperature:       350.0000000
  free_energy:      -245.5282763
  entropy:          1207.7354313
  heat_capacity:     491.6477930
  energy:            177.1791246

- temperature:       360.0000000
  free_energy:      -257.6752250
  entropy:          1221.5910539
  heat_capacity:     492.0329375
  energy:            182.0975544

- temperature:       370.0000000
  free_energy:      -269.9588659
  entropy:          1235.0771623
  heat_capacity:     492.3883180
  energy:            187.0196842

- temperature:       380.0000000
  free_energy:      -282.3755999
  entropy:          1248.2127141
  heat_capacity:     492.7169001
  energy:            191.9452315

- temperature:       390.0000000
  free_energy:      -294.9220103
  entropy:          1261.0152612
  heat_capacity:     493.0212918
  energy:            196.8739416

- temperature:       400.0000000
  free_energy:      -307.5948495
  entropy:          1273.5010846
  heat_capacity:     493.3037938
  energy:            201.8055844

- temperature:       410.0000000
  free_energy:      -320.3910268
  entropy:          1285.6853124
  heat_capacity:     493.5664416
  energy:            206.7399513

- temperature:       420.0000000
  free_energy:      -333.3075975
  entropy:          1297.5820250
  heat_capacity:     493.8110408
  energy:            211.6768531

- temperature:       430.0000000
  free_energy:      -346.3417528
  entropy:          1309.2043490
  heat_capacity:     494.0391980
  energy:            216.6161173

- temperature:       440.0000000
  free_energy:      -359.4908107
  entropy:          1320.5645404
  heat_capacity:     494.2523458
  energy:            221.5575870

- temperature:       450.0000000
  free_energy:      -372.7522081
  entropy:          1331.6740590
  heat_capacity:     494.4517649
  energy:            226.5011185

- temperature:       460.0000000
  free_energy:      -386.1234922
  entropy:          1342.5436360
  heat_capacity:     494.6386033
  energy:            231.4465804

- temperature:       470.0000000
  free_energy:      -399.6023146
  entropy:          1353.1833333
  heat_capacity:     494.8138918
  energy:            236.3938521

- temperature:       480.0000000
  free_energy:      -413.1864242
  entropy:          1363.6025979
  heat_capacity:     494.9785585
  energy:            241.3428228

- temperature:       490.0000000
  free_energy:      -426.8736614
  entropy:          1373.8103104
  heat_capacity:     495.1334406
  energy:            246.2933906

- temperature:       500.0000000
  free_energy:      -440.6619531
  entropy:          1383.8148293
  heat_capacity:     495.2792945
  energy:            251.2454615

- temperature:       510.0000000
  free_energy:      -454.5493070
  entropy:          1393.6240309
  heat_capacity:     495.4168055
  energy:            256.1989487

- temperature:       520.0000000
  free_energy:      -468.5338075
  entropy:          1403.2453450
  heat_capacity:     495.5465953
  energy:            261.1537719

- temperature:       530.0000000
  free_energy:      -482.6136110
  entropy:          1412.6857884
  heat_capacity:     495.6692289
  energy:            266.1098568

- temperature:       540.0000000
  free_energy:      -496.7869425
  entropy:          1421.9519942
  heat_capacity:     495.7852209
  energy:            271.0671344

- temperature:       550.0000000
  free_energy:      -511.0520911
  entropy:          1431.0502395
  heat_capacity:     495.8950406
  energy:            276.0255406

- temperature:       560.0000000
  free_energy:      -525.4074073
  entropy:          1439.9864702
  heat_capacity:     495.9991166
  energy:            280.9850160

- temperature:       570.0000000
  free_energy:      -539.8512993
  entropy:          1448.7663235
  heat_capacity:     496.0978412
  energy:            285.9455051

- temperature:       580.0000000
  free_energy:      -554.3822303
  entropy:          1457.3951493
  heat_capacity:     496.1915738
  energy:            290.9069562

- temperature:       590.0000000
  free_energy:      -568.9987158
  entropy:          1465.8780286
  heat_capacity:     496.2806444
  energy:            295.8693211

- temperature:       600.0000000
  free_energy:      -583.6993206
  entropy:          1474.2197919
  heat_capacity:     496.3653560
  energy:            300.8325546

- temperature:       610.0000000
  free_energy:      -598.4826566
  entropy:          1482.4250347
  heat_capacity:     496.4459876
  energy:            305.7966146

- temperature:       620.0000000
  free_energy:      -613.3473808
  entropy:          1490.4981329
  heat_capacity:     496.5227963
  energy:            310.7614616

- temperature:       630.0000000
  free_energy:      -628.2921927
  entropy:          1498.4432560
  heat_capacity:     496.5960194
  energy:            315.7270586

- temperature:       640.0000000
  free_energy:      -643.3158326
  entropy:          1506.2643803
  heat_capacity:     496.6658759
  energy:            320.6933708

- temperature:       650.0000000
  free_energy:      -658.4170796
  entropy:          1513.9653003
  heat_capacity:     496.7325686
  energy:            325.6603655

- temperature:       660.0000000
  free_energy:      -673.5947500
  entropy:          1521.5496398
  heat_capacity:     496.7962851
  energy:            330.6280122

- temperature:       670.0000000
  free_energy:      -688.8476954
  entropy:          1529.0208616
  heat_capacity:     496.8571995
  energy:            335.5962819

- temperature:       680.0000000
  free_energy:      -704.1748012
  entropy:          1536.3822774
  heat_capacity:     496.9154734
  energy:            340.5651474

- temperature:       690.0000000
  free_energy:      -719.5749855
  entropy:          1543.6370559
  heat_capacity:     496.9712567
  energy:            345.5345831

- temperature:       700.0000000
  free_energy:      -735.0471970
  entropy:          1550.7882311
  heat_capacity:     497.0246892
  energy:            350.5045647

- temperature:       710.0000000
  free_energy:      -750.5904145
  entropy:          1557.8387098
  heat_capacity:     497.0759007
  energy:            355.4750695

- temperature:       720.0000000
  free_energy:      -766.2036449
  entropy:          1564.7912786
  heat_capacity:     497.1250123
  energy:            360.4460757

- temperature:       730.0000000
  free_energy:      -781.8859226
  entropy:          1571.6486105
  heat_capacity:     497.1721372
  energy:            365.4175631

- temperature:       740.0000000
  free_energy:      -797.6363082
  entropy:          1578.4132708
  heat_capacity:     497.2173808
  energy:            370.3895122

- temperature:       750.0000000
  free_energy:      -813.4538873
  entropy:          1585.0877228
  heat_capacity:     497.2608417
  energy:            375.3619048

- temperature:       760.0000000
  free_energy:      -829.3377699
  entropy:          1591.6743332
  heat_capacity:     497.3026121
  energy:            380.3347234

- temperature:       770.0000000
  free_energy:      -845.2870888
  entropy:          1598.1753772
  heat_capacity:     497.3427786
  energy:            385.3079517

- temperature:       780.0000000
  free_energy:      -861.3009995
  entropy:          1604.5930428
  heat_capacity:     497.3814219
  energy:            390.2815739

- temperature:       790.0000000
  free_energy:      -877.3786787
  entropy:          1610.9294355
  heat_capacity:     497.4186180
  energy:            395.2555753

- temperature:       800.0000000
  free_energy:      -893.5193240
  entropy:          1617.1865821
  heat_capacity:     497.4544381
  energy:            400.2299417

- temperature:       810.0000000
  free_energy:      -909.7221527
  entropy:          1623.3664351
  heat_capacity:     497.4889492
  energy:            405.2046597

- temperature:       820.0000000
  free_energy:      -925.9864014
  entropy:          1629.4708755
  heat_capacity:     497.5222141
  energy:            410.1797165

- temperature:       830.0000000
  free_energy:      -942.3113249
  entropy:          1635.5017168
  heat_capacity:     497.5542921
  energy:            415.1551000

- temperature:       840.0000000
  free_energy:      -958.6961962
  entropy:          1641.4607081
  heat_capacity:     497.5852389
  energy:            420.1307986

- temperature:       850.0000000
  free_energy:      -975.1403052
  entropy:          1647.3495369
  heat_capacity:     497.6151069
  energy:            425.1068012

- temperature:       860.0000000
  free_energy:      -991.6429585
  entropy:          1653.1698323
  heat_capacity:     497.6439456
  energy:            430.0830973

- temperature:       870.0000000
  free_energy:     -1008.2034787
  entropy:          1658.9231672
  heat_capacity:     497.6718017
  energy:            435.0596768

- temperature:       880.0000000
  free_energy:     -1024.8212037
  entropy:          1664.6110613
  heat_capacity:     497.6987193
  energy:            440.0365302

- temperature:       890.0000000
  free_energy:     -1041.4954867
  entropy:          1670.2349830
  heat_capacity:     497.7247401
  energy:            445.0136482

- temperature:       900.0000000
  free_energy:     -1058.2256949
  entropy:          1675.7963522
  heat_capacity:     497.7499033
  energy:            449.9910221

- temperature:       910.0000000
  free_energy:     -1075.0112098
  entropy:          1681.2965421
  heat_capacity:     497.7742462
  energy:            454.9686435

- temperature:       920.0000000
  free_energy:     -1091.8514262
  entropy:          1686.7368812
  heat_capacity:     497.7978039
  energy:            459.9465044

- temperature:       930.0000000
  free_energy:     -1108.7457522
  entropy:          1692.1186552
  heat_capacity:     497.8206100
  energy:            464.9245971

- temperature:       940.0000000
  free_energy:     -1125.6936083
  entropy:          1697.4431090
  heat_capacity:     497.8426959
  energy:            469.9029142

- temperature:       950.0000000
  free_energy:     -1142.6944273
  entropy:          1702.7114485
  heat_capacity:     497.8640917
  energy:            474.8814487

- temperature:       960.0000000
  free_energy:     -1159.7476541
  entropy:          1707.9248416
  heat_capacity:     497.8848257
  energy:            479.8601939

- temperature:       970.0000000
  free_energy:     -1176.8527448
  entropy:          1713.0844205
  heat_capacity:     497.9049249
  energy:            484.8391431

- temperature:       980.0000000
  free_energy:     -1194.0091668
  entropy:          1718.1912828
  heat_capacity:     497.9244150
  energy:            489.8182903

- temperature:       990.0000000
  free_energy:     -1211.2163983
  entropy:          1723.2464927
  heat_capacity:     497.9433203
  energy:            494.7976295

- temperature:      1000.0000000
  free_energy:     -1228.4739279
  entropy:          1728.2510828
  heat_capacity:     497.9616639
  energy:            499.7771549
