# Thermal properties / unit cell (natom)

unit:
  temperature:   K
  free_energy:   kJ/mol
  entropy:       J/K/mol
  heat_capacity: J/K/mol

natom: 20   
cutoff_frequency:    0.000
num_modes: 30720
num_integrated_modes: 30704

zero_point_energy:      74.4034509
high_T_entropy:       1897.9984893

thermal_properties:
- temperature:         0.0000000
  free_energy:        74.4034509
  entropy:             0.0000000
  heat_capacity:       0.0000000
  energy:             74.4034509

- temperature:        10.0000000
  free_energy:        74.4015996
  entropy:             0.8464733
  heat_capacity:       2.9192088
  energy:             74.4100643

- temperature:        20.0000000
  free_energy:        74.3668283
  entropy:             7.2985009
  heat_capacity:      19.9400889
  energy:             74.5127983

- temperature:        30.0000000
  free_energy:        74.2337141
  entropy:            20.2724102
  heat_capacity:      46.9836508
  energy:             74.8418864

- temperature:        40.0000000
  free_energy:        73.9454086
  entropy:            38.0543024
  heat_capacity:      78.6555427
  energy:             75.4675807

- temperature:        50.0000000
  free_energy:        73.4614584
  entropy:            59.2011739
  heat_capacity:     112.3079386
  energy:             76.4215171

- temperature:        60.0000000
  free_energy:        72.7536242
  entropy:            82.6840118
  heat_capacity:     146.2482910
  energy:             77.7146650

- temperature:        70.0000000
  free_energy:        71.8026204
  entropy:           107.7193955
  heat_capacity:     179.1507339
  energy:             79.3429781

- temperature:        80.0000000
  free_energy:        70.5961454
  entropy:           133.6864960
  heat_capacity:     210.0826460
  energy:             81.2910651

- temperature:        90.0000000
  free_energy:        69.1274214
  entropy:           160.0982303
  heat_capacity:     238.5147691
  energy:             83.5362621

- temperature:       100.0000000
  free_energy:        67.3939457
  entropy:           186.5837603
  heat_capacity:     264.2425369
  energy:             86.0523217

- temperature:       110.0000000
  free_energy:        65.3964187
  entropy:           212.8701618
  heat_capacity:     287.2816357
  energy:             88.8121365

- temperature:       120.0000000
  free_energy:        63.1378597
  entropy:           238.7634374
  heat_capacity:     307.7781560
  energy:             91.7894721

- temperature:       130.0000000
  free_energy:        60.6229076
  entropy:           264.1309325
  heat_capacity:     325.9442106
  energy:             94.9599289

- temperature:       140.0000000
  free_energy:        57.8572850
  entropy:           288.8863727
  heat_capacity:     342.0164528
  energy:             98.3013771

- temperature:       150.0000000
  free_energy:        54.8473962
  entropy:           312.9778162
  heat_capacity:     356.2314480
  energy:            101.7940687

- temperature:       160.0000000
  free_energy:        51.6000338
  entropy:           336.3782958
  heat_capacity:     368.8122822
  energy:            105.4205612

- temperature:       170.0000000
  free_energy:        48.1221652
  entropy:           359.0787168
  heat_capacity:     379.9622059
  energy:            109.1655471

- temperature:       180.0000000
  free_energy:        44.4207824
  entropy:           381.0825543
  heat_capacity:     389.8624624
  energy:            113.0156422

- temperature:       190.0000000
  free_energy:        40.5027963
  entropy:           402.4019377
  heat_capacity:     398.6724720
  energy:            116.9591645

- temperature:       200.0000000
  free_energy:        36.3749658
  entropy:           423.0547852
  heat_capacity:     406.5312426
  energy:            120.9859228

- temperature:       210.0000000
  free_energy:        32.0438505
  entropy:           443.0627222
  heat_capacity:     413.5593304
  energy:            125.0870222

- temperature:       220.0000000
  free_energy:        27.5157817
  entropy:           462.4495808
  heat_capacity:     419.8609652
  energy:            129.2546895

- temperature:       230.0000000
  free_energy:        22.7968460
  entropy:           481.2403274
  heat_capacity:     425.5261274
  energy:            133.4821213

- temperature:       240.0000000
  free_energy:        17.8928777
  entropy:           499.4603032
  heat_capacity:     430.6324693
  energy:            137.7633505

- temperature:       250.0000000
  free_energy:        12.8094585
  entropy:           517.1346958
  heat_capacity:     435.2470379
  energy:            142.0931324

- temperature:       260.0000000
  free_energy:         7.5519201
  entropy:           534.2881767
  heat_capacity:     439.4277865
  energy:            146.4668461

- temperature:       270.0000000
  free_energy:         2.1253515
  entropy:           550.9446614
  heat_capacity:     443.2248849
  energy:            150.8804101

- temperature:       280.0000000
  free_energy:        -3.4653933
  entropy:           567.1271566
  heat_capacity:     446.6818451
  energy:            155.3302106

- temperature:       290.0000000
  free_energy:        -9.2156852
  entropy:           582.8576721
  heat_capacity:     449.8364826
  energy:            159.8130398

- temperature:       300.0000000
  free_energy:       -15.1211101
  entropy:           598.1571763
  heat_capacity:     452.7217351
  energy:            164.3260428

- temperature:       310.0000000
  free_energy:       -21.1774585
  entropy:           613.0455846
  heat_capacity:     455.3663583
  energy:            168.8666728

- temperature:       320.0000000
  free_energy:       -27.3807145
  entropy:           627.5417705
  heat_capacity:     457.7955162
  energy:            173.4326521

- temperature:       330.0000000
  free_energy:       -33.7270461
  entropy:           641.6635905
  heat_capacity:     460.0312831
  energy:            178.0219388

- temperature:       340.0000000
  free_energy:       -40.2127948
  entropy:           655.4279201
  heat_capacity:     462.0930695
  energy:            182.6326980

- temperature:       350.0000000
  free_energy:       -46.8344661
  entropy:           668.8506959
  heat_capacity:     463.9979845
  energy:            187.2632775

- temperature:       360.0000000
  free_energy:       -53.5887204
  entropy:           681.9469607
  heat_capacity:     465.7611445
  energy:            191.9121854

- temperature:       370.0000000
  free_energy:       -60.4723643
  entropy:           694.7309107
  heat_capacity:     467.3959367
  energy:            196.5780726

- temperature:       380.0000000
  free_energy:       -67.4823423
  entropy:           707.2159430
  heat_capacity:     468.9142443
  energy:            201.2597160

- temperature:       390.0000000
  free_energy:       -74.6157290
  entropy:           719.4147016
  heat_capacity:     470.3266390
  energy:            205.9560046

- temperature:       400.0000000
  free_energy:       -81.8697220
  entropy:           731.3391231
  heat_capacity:     471.6425467
  energy:            210.6659273

- temperature:       410.0000000
  free_energy:       -89.2416347
  entropy:           743.0004799
  heat_capacity:     472.8703896
  energy:            215.3885621

- temperature:       420.0000000
  free_energy:       -96.7288903
  entropy:           754.4094214
  heat_capacity:     474.0177092
  energy:            220.1230667

- temperature:       430.0000000
  free_energy:      -104.3290153
  entropy:           765.5760135
  heat_capacity:     475.0912719
  energy:            224.8686705

- temperature:       440.0000000
  free_energy:      -112.0396345
  entropy:           776.5097754
  heat_capacity:     476.0971608
  energy:            229.6246667

- temperature:       450.0000000
  free_energy:      -119.8584648
  entropy:           787.2197139
  heat_capacity:     477.0408555
  energy:            234.3904064

- temperature:       460.0000000
  free_energy:      -127.7833112
  entropy:           797.7143569
  heat_capacity:     477.9273009
  energy:            239.1652930

- temperature:       470.0000000
  free_energy:      -135.8120613
  entropy:           808.0017827
  heat_capacity:     478.7609680
  energy:            243.9487766

- temperature:       480.0000000
  free_energy:      -143.9426817
  entropy:           818.0896492
  heat_capacity:     479.5459059
  energy:            248.7403500

- temperature:       490.0000000
  free_energy:      -152.1732133
  entropy:           827.9852202
  heat_capacity:     480.2857884
  energy:            253.5395445

- temperature:       500.0000000
  free_energy:      -160.5017681
  entropy:           837.6953896
  heat_capacity:     480.9839544
  energy:            258.3459267

- temperature:       510.0000000
  free_energy:      -168.9265250
  entropy:           847.2267053
  heat_capacity:     481.6434430
  energy:            263.1590947

- temperature:       520.0000000
  free_energy:      -177.4457268
  entropy:           856.5853898
  heat_capacity:     482.2670250
  energy:            267.9786759

- temperature:       530.0000000
  free_energy:      -186.0576771
  entropy:           865.7773606
  heat_capacity:     482.8572305
  energy:            272.8043240

- temperature:       540.0000000
  free_energy:      -194.7607371
  entropy:           874.8082483
  heat_capacity:     483.4163732
  energy:            277.6357170

- temperature:       550.0000000
  free_energy:      -203.5533230
  entropy:           883.6834146
  heat_capacity:     483.9465721
  energy:            282.4725550

- temperature:       560.0000000
  free_energy:      -212.4339034
  entropy:           892.4079676
  heat_capacity:     484.4497701
  energy:            287.3145585

- temperature:       570.0000000
  free_energy:      -221.4009966
  entropy:           900.9867771
  heat_capacity:     484.9277520
  energy:            292.1614664

- temperature:       580.0000000
  free_energy:      -230.4531686
  entropy:           909.4244889
  heat_capacity:     485.3821585
  energy:            297.0130349

- temperature:       590.0000000
  free_energy:      -239.5890308
  entropy:           917.7255370
  heat_capacity:     485.8145006
  energy:            301.8690360

- temperature:       600.0000000
  free_energy:      -248.8072379
  entropy:           925.8941567
  heat_capacity:     486.2261712
  energy:            306.7292560

- temperature:       610.0000000
  free_energy:      -258.1064861
  entropy:           933.9343949
  heat_capacity:     486.6184559
  energy:            311.5934948

- temperature:       620.0000000
  free_energy:      -267.4855108
  entropy:           941.8501215
  heat_capacity:     486.9925430
  energy:            316.4615645

- temperature:       630.0000000
  free_energy:      -276.9430858
  entropy:           949.6450389
  heat_capacity:     487.3495315
  energy:            321.3332887

- temperature:       640.0000000
  free_energy:      -286.4780207
  entropy:           957.3226911
  heat_capacity:     487.6904397
  energy:            326.2085016

- temperature:       650.0000000
  free_energy:      -296.0891601
  entropy:           964.8864725
  heat_capacity:     488.0162117
  energy:            331.0870470

- temperature:       660.0000000
  free_energy:      -305.7753815
  entropy:           972.3396360
  heat_capacity:     488.3277238
  energy:            335.9687783

- temperature:       670.0000000
  free_energy:      -315.5355945
  entropy:           979.6853003
  heat_capacity:     488.6257903
  energy:            340.8535567

- temperature:       680.0000000
  free_energy:      -325.3687391
  entropy:           986.9264572
  heat_capacity:     488.9111685
  energy:            345.7412518

- temperature:       690.0000000
  free_energy:      -335.2737848
  entropy:           994.0659782
  heat_capacity:     489.1845637
  energy:            350.6317401

- temperature:       700.0000000
  free_energy:      -345.2497291
  entropy:          1001.1066206
  heat_capacity:     489.4466331
  energy:            355.5249053

- temperature:       710.0000000
  free_energy:      -355.2955965
  entropy:          1008.0510332
  heat_capacity:     489.6979896
  energy:            360.4206371

- temperature:       720.0000000
  free_energy:      -365.4104375
  entropy:          1014.9017622
  heat_capacity:     489.9392057
  energy:            365.3188313

- temperature:       730.0000000
  free_energy:      -375.5933276
  entropy:          1021.6612559
  heat_capacity:     490.1708164
  energy:            370.2193892

- temperature:       740.0000000
  free_energy:      -385.8433664
  entropy:          1028.3318698
  heat_capacity:     490.3933218
  energy:            375.1222173

- temperature:       750.0000000
  free_energy:      -396.1596763
  entropy:          1034.9158709
  heat_capacity:     490.6071904
  energy:            380.0272269

- temperature:       760.0000000
  free_energy:      -406.5414024
  entropy:          1041.4154423
  heat_capacity:     490.8128609
  energy:            384.9343338

- temperature:       770.0000000
  free_energy:      -416.9877108
  entropy:          1047.8326869
  heat_capacity:     491.0107447
  energy:            389.8434581

- temperature:       780.0000000
  free_energy:      -427.4977885
  entropy:          1054.1696313
  heat_capacity:     491.2012280
  energy:            394.7545240

- temperature:       790.0000000
  free_energy:      -438.0708423
  entropy:          1060.4282297
  heat_capacity:     491.3846733
  energy:            399.6674592

- temperature:       800.0000000
  free_energy:      -448.7060982
  entropy:          1066.6103667
  heat_capacity:     491.5614213
  energy:            404.5821951

- temperature:       810.0000000
  free_energy:      -459.4028008
  entropy:          1072.7178607
  heat_capacity:     491.7317925
  energy:            409.4986664

- temperature:       820.0000000
  free_energy:      -470.1602124
  entropy:          1078.7524673
  heat_capacity:     491.8960886
  energy:            414.4168107

- temperature:       830.0000000
  free_energy:      -480.9776128
  entropy:          1084.7158816
  heat_capacity:     492.0545936
  energy:            419.3365689

- temperature:       840.0000000
  free_energy:      -491.8542982
  entropy:          1090.6097410
  heat_capacity:     492.2075753
  energy:            424.2578842

- temperature:       850.0000000
  free_energy:      -502.7895811
  entropy:          1096.4356281
  heat_capacity:     492.3552862
  energy:            429.1807028

- temperature:       860.0000000
  free_energy:      -513.7827893
  entropy:          1102.1950727
  heat_capacity:     492.4979647
  energy:            434.1049732

- temperature:       870.0000000
  free_energy:      -524.8332660
  entropy:          1107.8895541
  heat_capacity:     492.6358357
  energy:            439.0306461

- temperature:       880.0000000
  free_energy:      -535.9403686
  entropy:          1113.5205036
  heat_capacity:     492.7691120
  energy:            443.9576746

- temperature:       890.0000000
  free_energy:      -547.1034689
  entropy:          1119.0893063
  heat_capacity:     492.8979946
  energy:            448.8860137

- temperature:       900.0000000
  free_energy:      -558.3219521
  entropy:          1124.5973028
  heat_capacity:     493.0226738
  energy:            453.8156204

- temperature:       910.0000000
  free_energy:      -569.5952166
  entropy:          1130.0457916
  heat_capacity:     493.1433298
  energy:            458.7464537

- temperature:       920.0000000
  free_energy:      -580.9226738
  entropy:          1135.4360304
  heat_capacity:     493.2601330
  energy:            463.6784742

- temperature:       930.0000000
  free_energy:      -592.3037471
  entropy:          1140.7692379
  heat_capacity:     493.3732452
  energy:            468.6116441

- temperature:       940.0000000
  free_energy:      -603.7378723
  entropy:          1146.0465954
  heat_capacity:     493.4828198
  energy:            473.5459273

- temperature:       950.0000000
  free_energy:      -615.2244967
  entropy:          1151.2692483
  heat_capacity:     493.5890021
  energy:            478.4812892

- temperature:       960.0000000
  free_energy:      -626.7630787
  entropy:          1156.4383075
  heat_capacity:     493.6919303
  energy:            483.4176965

- temperature:       970.0000000
  free_energy:      -638.3530878
  entropy:          1161.5548507
  heat_capacity:     493.7917356
  energy:            488.3551174

- temperature:       980.0000000
  free_energy:      -649.9940041
  entropy:          1166.6199238
  heat_capacity:     493.8885425
  energy:            493.2935212

- temperature:       990.0000000
  free_energy:      -661.6853181
  entropy:          1171.6345421
  heat_capacity:     493.9824697
  energy:            498.2328786

- temperature:      1000.0000000
  free_energy:      -673.4265301
  entropy:          1176.5996915
  heat_capacity:     494.0736298
  energy:            503.1731614
