# Thermal properties / unit cell (natom)

unit:
  temperature:   K
  free_energy:   kJ/mol
  entropy:       J/K/mol
  heat_capacity: J/K/mol

natom: 20   
cutoff_frequency:    0.000
num_modes: 30720
num_integrated_modes: 30388

zero_point_energy:     137.5961933
high_T_entropy:       1569.0540987

thermal_properties:
- temperature:         0.0000000
  free_energy:       137.5961933
  entropy:             0.0000000
  heat_capacity:       0.0000000
  energy:            137.5961933

- temperature:        10.0000000
  free_energy:       137.5937497
  entropy:             0.7193086
  heat_capacity:       1.4291770
  energy:            137.6009428

- temperature:        20.0000000
  free_energy:       137.5763919
  entropy:             3.0695291
  heat_capacity:       6.6187096
  energy:            137.6377825

- temperature:        30.0000000
  free_energy:       137.5261802
  entropy:             7.2509451
  heat_capacity:      14.9348323
  energy:            137.7437085

- temperature:        40.0000000
  free_energy:       137.4264933
  entropy:            12.9041773
  heat_capacity:      25.1562492
  energy:            137.9426604

- temperature:        50.0000000
  free_energy:       137.2640273
  entropy:            19.7833242
  heat_capacity:      37.2785540
  energy:            138.2531935

- temperature:        60.0000000
  free_energy:       137.0270623
  entropy:            27.7918473
  heat_capacity:      51.2901779
  energy:            138.6945732

- temperature:        70.0000000
  free_energy:       136.7046914
  entropy:            36.8490154
  heat_capacity:      66.8362318
  energy:            139.2841225

- temperature:        80.0000000
  free_energy:       136.2869383
  entropy:            46.8487666
  heat_capacity:      83.4471243
  energy:            140.0348397

- temperature:        90.0000000
  free_energy:       135.7649804
  entropy:            57.6692358
  heat_capacity:     100.7051840
  energy:            140.9552116

- temperature:       100.0000000
  free_energy:       135.1312278
  entropy:            69.1877176
  heat_capacity:     118.2825587
  energy:            142.0499996

- temperature:       110.0000000
  free_energy:       134.3792846
  entropy:            81.2889875
  heat_capacity:     135.9247094
  energy:            143.3210732

- temperature:       120.0000000
  free_energy:       133.5038565
  entropy:            93.8680842
  heat_capacity:     153.4278961
  energy:            144.7680266

- temperature:       130.0000000
  free_energy:       132.5006463
  entropy:           106.8304728
  heat_capacity:     170.6250887
  energy:            146.3886078

- temperature:       140.0000000
  free_energy:       131.3662529
  entropy:           120.0914063
  heat_capacity:     187.3796341
  energy:            148.1790498

- temperature:       150.0000000
  free_energy:       130.0980762
  entropy:           133.5752225
  heat_capacity:     203.5827912
  energy:            150.1343596

- temperature:       160.0000000
  free_energy:       128.6942303
  entropy:           147.2147511
  heat_capacity:     219.1522233
  energy:            152.2485904

- temperature:       170.0000000
  free_energy:       127.1534603
  entropy:           160.9508007
  heat_capacity:     234.0300914
  energy:            154.5150964

- temperature:       180.0000000
  free_energy:       125.4750657
  entropy:           174.7316637
  heat_capacity:     248.1804415
  energy:            156.9267651

- temperature:       190.0000000
  free_energy:       123.6588275
  entropy:           188.5125981
  heat_capacity:     261.5860726
  energy:            159.4762211

- temperature:       200.0000000
  free_energy:       121.7049419
  entropy:           202.2552752
  heat_capacity:     274.2452054
  energy:            162.1559969

- temperature:       210.0000000
  free_energy:       119.6139584
  entropy:           215.9272007
  heat_capacity:     286.1682425
  energy:            164.9586706

- temperature:       220.0000000
  free_energy:       117.3867250
  entropy:           229.5011261
  heat_capacity:     297.3748124
  energy:            167.8769728

- temperature:       230.0000000
  free_energy:       115.0243383
  entropy:           242.9544671
  heat_capacity:     307.8912044
  energy:            170.9038657

- temperature:       240.0000000
  free_energy:       112.5280996
  entropy:           256.2687460
  heat_capacity:     317.7482262
  energy:            174.0325987

- temperature:       250.0000000
  free_energy:       109.8994769
  entropy:           269.4290691
  heat_capacity:     326.9794736
  energy:            177.2567442

- temperature:       260.0000000
  free_energy:       107.1400710
  entropy:           282.4236458
  heat_capacity:     335.6199715
  energy:            180.5702189

- temperature:       270.0000000
  free_energy:       104.2515871
  entropy:           295.2433534
  heat_capacity:     343.7051360
  energy:            183.9672925

- temperature:       280.0000000
  free_energy:       101.2358099
  entropy:           307.8813484
  heat_capacity:     351.2700040
  energy:            187.4425874

- temperature:       290.0000000
  free_energy:        98.0945824
  entropy:           320.3327232
  heat_capacity:     358.3486805
  energy:            190.9910721

- temperature:       300.0000000
  free_energy:        94.8297886
  entropy:           332.5942045
  heat_capacity:     364.9739573
  energy:            194.6080499

- temperature:       310.0000000
  free_energy:        91.4433378
  entropy:           344.6638919
  heat_capacity:     371.1770660
  energy:            198.2891442

- temperature:       320.0000000
  free_energy:        87.9371527
  entropy:           356.5410311
  heat_capacity:     376.9875329
  energy:            202.0302826

- temperature:       330.0000000
  free_energy:        84.3131584
  entropy:           368.2258194
  heat_capacity:     382.4331103
  energy:            205.8276788

- temperature:       340.0000000
  free_energy:        80.5732742
  entropy:           379.7192383
  heat_capacity:     387.5397647
  energy:            209.6778153

- temperature:       350.0000000
  free_energy:        76.7194062
  entropy:           391.0229116
  heat_capacity:     392.3317037
  energy:            213.5774252

- temperature:       360.0000000
  free_energy:        72.7534414
  entropy:           402.1389836
  heat_capacity:     396.8314321
  energy:            217.5234755

- temperature:       370.0000000
  free_energy:        68.6772433
  entropy:           413.0700169
  heat_capacity:     401.0598257
  energy:            221.5131496

- temperature:       380.0000000
  free_energy:        64.4926482
  entropy:           423.8189051
  heat_capacity:     405.0362164
  energy:            225.5438322

- temperature:       390.0000000
  free_energy:        60.2014619
  entropy:           434.3887994
  heat_capacity:     408.7784845
  energy:            229.6130937

- temperature:       400.0000000
  free_energy:        55.8054577
  entropy:           444.7830473
  heat_capacity:     412.3031519
  energy:            233.7186766

- temperature:       410.0000000
  free_energy:        51.3063748
  entropy:           455.0051403
  heat_capacity:     415.6254757
  energy:            237.8584824

- temperature:       420.0000000
  free_energy:        46.7059168
  entropy:           465.0586713
  heat_capacity:     418.7595398
  energy:            242.0305587

- temperature:       430.0000000
  free_energy:        42.0057511
  entropy:           474.9472976
  heat_capacity:     421.7183425
  energy:            246.2330891

- temperature:       440.0000000
  free_energy:        37.2075082
  entropy:           484.6747119
  heat_capacity:     424.5138795
  energy:            250.4643815

- temperature:       450.0000000
  free_energy:        32.3127819
  entropy:           494.2446168
  heat_capacity:     427.1572227
  energy:            254.7228594

- temperature:       460.0000000
  free_energy:        27.3231286
  entropy:           503.6607047
  heat_capacity:     429.6585936
  energy:            259.0070528

- temperature:       470.0000000
  free_energy:        22.2400683
  entropy:           512.9266411
  heat_capacity:     432.0274314
  energy:            263.3155896

- temperature:       480.0000000
  free_energy:        17.0650842
  entropy:           522.0460512
  heat_capacity:     434.2724568
  energy:            267.6471888

- temperature:       490.0000000
  free_energy:        11.7996238
  entropy:           531.0225086
  heat_capacity:     436.4017300
  energy:            272.0006530

- temperature:       500.0000000
  free_energy:         6.4450988
  entropy:           539.8595272
  heat_capacity:     438.4227049
  energy:            276.3748624

- temperature:       510.0000000
  free_energy:         1.0028865
  entropy:           548.5605541
  heat_capacity:     440.3422785
  energy:            280.7687691

- temperature:       520.0000000
  free_energy:        -4.5256702
  entropy:           557.1289645
  heat_capacity:     442.1668364
  energy:            285.1813913

- temperature:       530.0000000
  free_energy:       -10.1392617
  entropy:           565.5680578
  heat_capacity:     443.9022947
  energy:            289.6118089

- temperature:       540.0000000
  free_energy:       -15.8366111
  entropy:           573.8810548
  heat_capacity:     445.5541377
  energy:            294.0591586

- temperature:       550.0000000
  free_energy:       -21.6164730
  entropy:           582.0710962
  heat_capacity:     447.1274535
  energy:            298.5226299

- temperature:       560.0000000
  free_energy:       -27.4776333
  entropy:           590.1412410
  heat_capacity:     448.6269652
  energy:            303.0014617

- temperature:       570.0000000
  free_energy:       -33.4189081
  entropy:           598.0944666
  heat_capacity:     450.0570610
  energy:            307.4949379

- temperature:       580.0000000
  free_energy:       -39.4391426
  entropy:           605.9336685
  heat_capacity:     451.4218201
  energy:            312.0023851

- temperature:       590.0000000
  free_energy:       -45.5372108
  entropy:           613.6616609
  heat_capacity:     452.7250377
  energy:            316.5231692

- temperature:       600.0000000
  free_energy:       -51.7120142
  entropy:           621.2811780
  heat_capacity:     453.9702472
  energy:            321.0566925

- temperature:       610.0000000
  free_energy:       -57.9624816
  entropy:           628.7948744
  heat_capacity:     455.1607406
  energy:            325.6023918

- temperature:       620.0000000
  free_energy:       -64.2875676
  entropy:           636.2053271
  heat_capacity:     456.2995873
  energy:            330.1597352

- temperature:       630.0000000
  free_energy:       -70.6862523
  entropy:           643.5150369
  heat_capacity:     457.3896512
  energy:            334.7282209

- temperature:       640.0000000
  free_energy:       -77.1575406
  entropy:           650.7264300
  heat_capacity:     458.4336063
  energy:            339.3073746

- temperature:       650.0000000
  free_energy:       -83.7004611
  entropy:           657.8418596
  heat_capacity:     459.4339513
  energy:            343.8967477

- temperature:       660.0000000
  free_energy:       -90.3140655
  entropy:           664.8636084
  heat_capacity:     460.3930225
  energy:            348.4959160

- temperature:       670.0000000
  free_energy:       -96.9974283
  entropy:           671.7938899
  heat_capacity:     461.3130061
  energy:            353.1044779

- temperature:       680.0000000
  free_energy:      -103.7496456
  entropy:           678.6348504
  heat_capacity:     462.1959490
  energy:            357.7220527

- temperature:       690.0000000
  free_energy:      -110.5698346
  entropy:           685.3885715
  heat_capacity:     463.0437694
  energy:            362.3482798

- temperature:       700.0000000
  free_energy:      -117.4571330
  entropy:           692.0570714
  heat_capacity:     463.8582659
  energy:            366.9828170

- temperature:       710.0000000
  free_energy:      -124.4106985
  entropy:           698.6423072
  heat_capacity:     464.6411258
  energy:            371.6253397

- temperature:       720.0000000
  free_energy:      -131.4297079
  entropy:           705.1461768
  heat_capacity:     465.3939338
  energy:            376.2755394

- temperature:       730.0000000
  free_energy:      -138.5133569
  entropy:           711.5705206
  heat_capacity:     466.1181783
  energy:            380.9331231

- temperature:       740.0000000
  free_energy:      -145.6608592
  entropy:           717.9171238
  heat_capacity:     466.8152590
  energy:            385.5978124

- temperature:       750.0000000
  free_energy:      -152.8714460
  entropy:           724.1877176
  heat_capacity:     467.4864925
  energy:            390.2693422

- temperature:       760.0000000
  free_energy:      -160.1443658
  entropy:           730.3839816
  heat_capacity:     468.1331180
  energy:            394.9474602

- temperature:       770.0000000
  free_energy:      -167.4788833
  entropy:           736.5075451
  heat_capacity:     468.7563029
  energy:            399.6319264

- temperature:       780.0000000
  free_energy:      -174.8742796
  entropy:           742.5599890
  heat_capacity:     469.3571476
  energy:            404.3225118

- temperature:       790.0000000
  free_energy:      -182.3298512
  entropy:           748.5428475
  heat_capacity:     469.9366895
  energy:            409.0189984

- temperature:       800.0000000
  free_energy:      -189.8449096
  entropy:           754.4576093
  heat_capacity:     470.4959079
  energy:            413.7211779

- temperature:       810.0000000
  free_energy:      -197.4187812
  entropy:           760.3057198
  heat_capacity:     471.0357271
  energy:            418.4288519

- temperature:       820.0000000
  free_energy:      -205.0508065
  entropy:           766.0885819
  heat_capacity:     471.5570205
  energy:            423.1418307

- temperature:       830.0000000
  free_energy:      -212.7403399
  entropy:           771.8075580
  heat_capacity:     472.0606136
  energy:            427.8599333

- temperature:       840.0000000
  free_energy:      -220.4867491
  entropy:           777.4639710
  heat_capacity:     472.5472873
  energy:            432.5829866

- temperature:       850.0000000
  free_energy:      -228.2894150
  entropy:           783.0591060
  heat_capacity:     473.0177804
  energy:            437.3108251

- temperature:       860.0000000
  free_energy:      -236.1477311
  entropy:           788.5942113
  heat_capacity:     473.4727923
  energy:            442.0432906

- temperature:       870.0000000
  free_energy:      -244.0611032
  entropy:           794.0704997
  heat_capacity:     473.9129859
  energy:            446.7802315

- temperature:       880.0000000
  free_energy:      -252.0289490
  entropy:           799.4891500
  heat_capacity:     474.3389892
  energy:            451.5215030

- temperature:       890.0000000
  free_energy:      -260.0506979
  entropy:           804.8513078
  heat_capacity:     474.7513979
  energy:            456.2669660

- temperature:       900.0000000
  free_energy:      -268.1257906
  entropy:           810.1580868
  heat_capacity:     475.1507770
  energy:            461.0164875

- temperature:       910.0000000
  free_energy:      -276.2536787
  entropy:           815.4105699
  heat_capacity:     475.5376631
  energy:            465.7699399

- temperature:       920.0000000
  free_energy:      -284.4338245
  entropy:           820.6098101
  heat_capacity:     475.9125656
  energy:            470.5272008

- temperature:       930.0000000
  free_energy:      -292.6657008
  entropy:           825.7568319
  heat_capacity:     476.2759686
  energy:            475.2881529

- temperature:       940.0000000
  free_energy:      -300.9487904
  entropy:           830.8526317
  heat_capacity:     476.6283322
  energy:            480.0526834

- temperature:       950.0000000
  free_energy:      -309.2825859
  entropy:           835.8981791
  heat_capacity:     476.9700942
  energy:            484.8206842

- temperature:       960.0000000
  free_energy:      -317.6665896
  entropy:           840.8944177
  heat_capacity:     477.3016709
  energy:            489.5920513

- temperature:       970.0000000
  free_energy:      -326.1003130
  entropy:           845.8422660
  heat_capacity:     477.6234588
  energy:            494.3666850

- temperature:       980.0000000
  free_energy:      -334.5832766
  entropy:           850.7426181
  heat_capacity:     477.9358355
  energy:            499.1444892

- temperature:       990.0000000
  free_energy:      -343.1150099
  entropy:           855.5963449
  heat_capacity:     478.2391605
  energy:            503.9253715

- temperature:      1000.0000000
  free_energy:      -351.6950509
  entropy:           860.4042943
  heat_capacity:     478.5337768
  energy:            508.7092433
